ITEM: TIMESTEP
0
ITEM: NUMBER OF ATOMS
5932
ITEM: BOX BOUNDS pp pp pp
-2.3000000000000000e+01 2.3000000000000000e+01
-2.3000000000000000e+01 2.3000000000000000e+01
-2.3000000000000000e+01 2.3000000000000000e+01
ITEM: ATOMS id type xs ys zs
692 2 0.256744 0.110417 0.137035
2896 1 0.537607 0.110534 0.0776226
2897 2 0.531989 0.130595 0.0777358
2898 2 0.529121 0.104716 0.0964193
4921 1 0.474792 0.0671259 0.113749
4922 2 0.485218 0.0851933 0.112502
4923 2 0.45633 0.0735596 0.107761
5879 2 0.541854 0.0631471 0.109951
5917 1 0.493777 0.126265 0.124477
232 1 0.59691 0.109697 0.0863013
233 2 0.577428 0.107666 0.0787841
234 2 0.594736 0.101043 0.105448
2312 2 0.614995 0.0646711 0.141519
3241 1 0.679578 0.137332 0.135726
3242 2 0.66031 0.141587 0.126428
1893 2 0.843453 0.130767 0.138301
2230 1 0.768239 0.132934 0.116364
2231 2 0.78875 0.137294 0.113764
2386 1 0.760386 0.0634112 0.114621
2387 2 0.765567 0.083329 0.116541
2424 2 0.741045 0.135341 0.0475609
298 1 0.924025 0.125718 0.13008
299 2 0.911429 0.111015 0.120669
300 2 0.938252 0.114716 0.141269
985 1 0.894673 0.0777403 0.11784
986 2 0.874283 0.0834186 0.121421
987 2 0.897025 0.0593542 0.126985
5634 2 0.860489 0.0706058 0.0516332
830 2 0.0960954 0.204506 0.124273
4074 2 0.421541 0.225708 0.128922
4108 1 0.414584 0.253181 0.101908
4109 2 0.401125 0.249575 0.0870313
4110 2 0.421656 0.27214 0.0981323
4700 2 0.302463 0.282247 0.133013
2596 1 0.509914 0.167696 0.0792953
2597 2 0.491202 0.175227 0.0739635
2598 2 0.515301 0.175719 0.0977345
4753 1 0.481808 0.190244 0.137826
4754 2 0.467212 0.205597 0.135982
5919 2 0.484343 0.144757 0.121796
3466 1 0.686046 0.215142 0.13224
3467 2 0.689648 0.194536 0.1268
3468 2 0.666733 0.218792 0.124416
3643 1 0.6342 0.217958 0.107297
3644 2 0.625844 0.199827 0.115229
3645 2 0.623975 0.218303 0.0890389
4587 2 0.710959 0.157561 0.1021
4780 1 0.612343 0.15888 0.119826
4781 2 0.599771 0.152343 0.135903
4782 2 0.607163 0.145033 0.10453
754 1 0.840946 0.153636 0.108484
756 2 0.835926 0.173398 0.113616
2130 2 0.827742 0.277533 0.131812
2232 2 0.762535 0.143679 0.0997159
2422 1 0.756973 0.147478 0.0536094
2423 2 0.771153 0.149346 0.0388366
3013 1 0.750292 0.226985 0.11938
3014 2 0.734623 0.217836 0.107906
3015 2 0.74227 0.226653 0.139281
4585 1 0.724177 0.174503 0.0999707
4586 2 0.735297 0.169788 0.0823399
4870 1 0.794549 0.264019 0.10493
4871 2 0.789439 0.277744 0.0903131
4872 2 0.776843 0.252872 0.106797
5671 1 0.823253 0.207897 0.12001
5672 2 0.829653 0.211238 0.139968
5673 2 0.810088 0.223608 0.118953
755 2 0.859307 0.156604 0.0983704
1996 1 0.908456 0.170075 0.0954938
1997 2 0.926599 0.175094 0.0876616
1998 2 0.91222 0.154151 0.107973
3868 1 0.880439 0.232238 0.0827295
3869 2 0.876127 0.2119 0.0776419
3870 2 0.860577 0.238218 0.0886131
5386 1 0.905982 0.264474 0.129463
5387 2 0.907753 0.248007 0.116406
5388 2 0.887114 0.26036 0.138672
132 2 0.0593511 0.362411 0.0700112
411 2 0.0702087 0.414917 0.136388
1771 1 0.139264 0.295147 0.136771
1772 2 0.118947 0.289811 0.14051
1773 2 0.138274 0.311148 0.122925
2632 1 0.106486 0.40709 0.110615
2633 2 0.0964924 0.388684 0.107532
2634 2 0.107552 0.414027 0.090657
3853 1 0.0903734 0.345512 0.0948571
3854 2 0.111218 0.348974 0.0980108
3855 2 0.086757 0.326314 0.102947
5334 2 0.0632037 0.315322 0.136991
1942 1 0.219879 0.381621 0.140478
1943 2 0.217358 0.361883 0.136862
1944 2 0.211654 0.389514 0.12341
4612 1 0.150585 0.348918 0.1038
4613 2 0.153367 0.369714 0.107825
4614 2 0.170653 0.343488 0.101434
4695 2 0.277865 0.363406 0.131006
4699 1 0.283226 0.290155 0.133569
4837 1 0.193778 0.316309 0.138009
5881 1 0.174615 0.405226 0.0972829
5882 2 0.17626 0.409659 0.0769059
5883 2 0.165758 0.422656 0.103837
2167 1 0.344322 0.309374 0.118091
2168 2 0.343081 0.329353 0.118423
2169 2 0.358492 0.303609 0.132479
3838 1 0.383134 0.356889 0.1044
3839 2 0.390681 0.337914 0.0987005
3840 2 0.397232 0.370167 0.0960868
4693 1 0.292053 0.352697 0.141072
4701 2 0.286221 0.310044 0.129099
780 2 0.50847 0.340105 0.138421
1138 1 0.459515 0.380262 0.138712
1139 2 0.463484 0.400621 0.141503
1924 1 0.488778 0.36612 0.0821109
1925 2 0.482903 0.372193 0.100742
1926 2 0.478493 0.381611 0.0707428
3451 1 0.453362 0.411026 0.0668449
3453 2 0.441418 0.417425 0.0514098
5770 1 0.440224 0.32239 0.107061
5771 2 0.45477 0.336932 0.101515
5772 2 0.449649 0.31728 0.124539
1732 1 0.686137 0.317562 0.14145
1734 2 0.676174 0.303364 0.129978
3556 1 0.75538 0.393512 0.115336
3557 2 0.758734 0.399474 0.135521
3558 2 0.743045 0.40847 0.107194
5154 2 0.757543 0.30594 0.132022
5569 1 0.765882 0.333797 0.0913223
5570 2 0.782574 0.341196 0.0818602
5571 2 0.756478 0.351357 0.0978361
130 1 0.92805 0.362647 0.05915
131 2 0.923487 0.342506 0.0578508
1090 1 0.915341 0.340391 0.132213
1092 2 0.906657 0.329795 0.115982
2089 1 0.90041 0.300624 0.0733094
2090 2 0.892563 0.287798 0.0876499
2091 2 0.910411 0.287531 0.0596648
3079 1 0.898869 0.400643 0.096561
3080 2 0.917502 0.401056 0.106683
3081 2 0.902058 0.387291 0.0807842
3600 2 0.871506 0.423326 0.110467
2545 1 0.135858 0.509478 0.0783529
2546 2 0.119558 0.504004 0.0912199
2547 2 0.130356 0.529507 0.0777236
3073 1 0.0894594 0.498472 0.127721
3074 2 0.0698795 0.504689 0.131076
3075 2 0.0911297 0.482016 0.140764
43 1 0.207153 0.540665 0.0788366
44 2 0.209403 0.526712 0.0945388
45 2 0.206823 0.526382 0.0634312
2509 1 0.147836 0.442888 0.051068
2510 2 0.158936 0.447665 0.0335569
2511 2 0.147041 0.461624 0.0609012
3982 1 0.233577 0.504894 0.122573
3983 2 0.243488 0.524273 0.121721
3984 2 0.241859 0.497717 0.140452
4630 1 0.267216 0.557752 0.137398
5830 1 0.416242 0.54413 0.142465
2008 1 0.465904 0.552837 0.106982
2010 2 0.470533 0.55114 0.0867431
3452 2 0.455587 0.429201 0.0771504
5578 1 0.468138 0.470832 0.085838
5579 2 0.457585 0.488563 0.0886794
5580 2 0.472639 0.466302 0.106042
5702 2 0.487583 0.527256 0.128978
5831 2 0.43266 0.542495 0.129713
265 1 0.761325 0.532324 0.138372
266 2 0.773502 0.518194 0.128557
343 1 0.772137 0.54842 0.0684757
344 2 0.777754 0.529198 0.0755117
345 2 0.751626 0.545438 0.06719
709 1 0.788201 0.49216 0.0889747
710 2 0.807048 0.488138 0.0808455
711 2 0.782359 0.473053 0.092723
1030 1 0.796566 0.449927 0.138874
1031 2 0.809223 0.434583 0.131763
2158 1 0.716467 0.561079 0.108719
2160 2 0.726313 0.545664 0.118859
3598 1 0.854579 0.430005 0.121648
3925 1 0.842768 0.456491 0.06841
3926 2 0.842323 0.449177 0.0887
3599 2 0.864205 0.437437 0.139085
3927 2 0.862097 0.450629 0.0622588
2083 1 0.0793828 0.609122 0.123537
2084 2 0.0757247 0.627565 0.114448
2085 2 0.0989021 0.605583 0.118578
2392 1 0.128025 0.62069 0.0770248
2393 2 0.133406 0.641311 0.0761569
2394 2 0.142166 0.611186 0.0647757
2674 1 0.139667 0.637669 0.139298
2675 2 0.141466 0.627483 0.121393
2676 2 0.126986 0.65452 0.134694
3334 1 0.0929986 0.689704 0.127324
3335 2 0.0928263 0.704146 0.112056
3336 2 0.0802713 0.698219 0.141322
352 1 0.230507 0.640215 0.130319
353 2 0.245854 0.629644 0.139289
354 2 0.226168 0.624183 0.117736
634 1 0.16109 0.712901 0.133315
2503 1 0.25062 0.701849 0.130113
2505 2 0.238097 0.68501 0.12491
3961 1 0.235327 0.591977 0.0940958
3962 2 0.253345 0.583088 0.100847
3963 2 0.22204 0.57655 0.0921324
5374 1 0.177673 0.594096 0.0603764
5375 2 0.189919 0.610266 0.0631211
5376 2 0.190001 0.577509 0.0642984
133 1 0.358816 0.668215 0.101231
134 2 0.354758 0.648504 0.0971882
135 2 0.365041 0.666549 0.121288
644 2 0.344062 0.708928 0.094358
2326 1 0.41517 0.702546 0.10145
2327 2 0.404066 0.698596 0.119492
2328 2 0.402712 0.695898 0.0860487
139 1 0.450624 0.660806 0.12156
140 2 0.441675 0.678554 0.113428
141 2 0.463024 0.670104 0.135182
2009 2 0.462443 0.57364 0.108138
2020 1 0.457032 0.611603 0.0850022
2021 2 0.453169 0.628287 0.0976661
2022 2 0.452201 0.618885 0.0661685
2715 2 0.432037 0.619956 0.141461
1903 1 0.696637 0.710642 0.128736
1905 2 0.696632 0.694109 0.116492
3214 1 0.663968 0.620359 0.12047
3215 2 0.660221 0.605705 0.105619
3216 2 0.681396 0.630177 0.114095
2159 2 0.729652 0.577469 0.108232
2616 2 0.825863 0.702411 0.0950452
3616 1 0.763627 0.607967 0.092757
3617 2 0.779417 0.621202 0.0887469
3618 2 0.766243 0.590887 0.0793322
4474 1 0.805954 0.677476 0.065538
4475 2 0.802266 0.678284 0.0439962
4476 2 0.806472 0.656774 0.0675796
5323 1 0.721563 0.64734 0.114873
5324 2 0.724385 0.627834 0.108025
5325 2 0.74198 0.652441 0.116501
5650 1 0.818122 0.611546 0.0615846
5651 2 0.838738 0.611167 0.0655378
5652 2 0.814702 0.593068 0.0522829
490 1 0.876375 0.613694 0.073561
491 2 0.884169 0.608549 0.0918435
492 2 0.884867 0.632117 0.0697072
2671 1 0.903437 0.597815 0.12428
2672 2 0.911938 0.616785 0.129394
2673 2 0.918824 0.585405 0.118192
636 2 0.14171 0.720721 0.134311
1474 1 0.0953179 0.758079 0.124841
1475 2 0.103986 0.776459 0.120609
1476 2 0.0801309 0.765077 0.136684
5284 1 0.139022 0.7967 0.126817
635 2 0.171131 0.724612 0.118743
789 2 0.257835 0.847888 0.136456
2590 1 0.247506 0.783366 0.117616
2591 2 0.251884 0.801224 0.106321
2592 2 0.262823 0.784278 0.13235
3145 1 0.193503 0.76142 0.109982
3146 2 0.214524 0.76491 0.108127
3147 2 0.194919 0.757098 0.130577
3157 1 0.281524 0.733451 0.0940109
3158 2 0.272669 0.719837 0.107002
3159 2 0.26773 0.749476 0.0967684
5285 2 0.152503 0.812919 0.132832
5286 2 0.150529 0.79222 0.109899
643 1 0.339027 0.726888 0.0844243
645 2 0.317397 0.725976 0.0840037
1000 1 0.342816 0.790449 0.10837
1001 2 0.341335 0.77363 0.0953447
1002 2 0.363662 0.79213 0.112898
1828 1 0.401629 0.818684 0.0915217
1829 2 0.395058 0.830993 0.0756697
1830 2 0.402492 0.799338 0.083049
3115 1 0.399761 0.75734 0.0803208
3116 2 0.413246 0.744213 0.0887121
3117 2 0.381979 0.746505 0.0824198
5398 1 0.303573 0.837325 0.128877
5400 2 0.317226 0.822991 0.119835
761 2 0.495969 0.845558 0.138823
2683 1 0.46129 0.84581 0.119598
2684 2 0.441081 0.841995 0.124046
2685 2 0.464168 0.831732 0.104537
4525 1 0.487545 0.773143 0.0855977
4526 2 0.502327 0.765257 0.0742949
4527 2 0.497718 0.773001 0.103728
1874 2 0.713385 0.810999 0.142019
2139 2 0.713745 0.772683 0.102251
2647 1 0.654645 0.824275 0.0970453
2648 2 0.658058 0.844659 0.09713
2649 2 0.633673 0.825032 0.0979057
4312 1 0.684315 0.786378 0.133193
4313 2 0.667252 0.773483 0.133547
4314 2 0.674806 0.803698 0.124939
5698 1 0.6341 0.752349 0.136024
5699 2 0.652253 0.742512 0.129627
1873 1 0.732451 0.819376 0.140869
1875 2 0.726954 0.836121 0.129977
2137 1 0.72596 0.755722 0.0983502
2138 2 0.715609 0.741845 0.109805
2524 1 0.788546 0.768862 0.114972
2525 2 0.771669 0.76656 0.102668
2526 2 0.782924 0.753428 0.128447
2614 1 0.836365 0.718164 0.103721
2615 2 0.825171 0.724039 0.119895
3826 1 0.819459 0.830695 0.085138
3827 2 0.811821 0.81381 0.0956918
3828 2 0.828131 0.819782 0.0691789
49 1 0.894354 0.739151 0.106984
50 2 0.892556 0.750586 0.0893665
51 2 0.879457 0.724266 0.104672
3805 1 0.133782 0.892561 0.134283
1455 2 0.274681 0.908871 0.135304
3807 2 0.146158 0.876428 0.129948
449 2 0.474751 0.89287 0.135856
450 2 0.480701 0.924841 0.135919
1868 2 0.554077 0.865305 0.140411
5878 1 0.55359 0.938443 0.0963868
5880 2 0.540194 0.931838 0.0822645
1489 1 0.602868 0.913659 0.0793623
1490 2 0.588078 0.926458 0.087325
1491 2 0.595064 0.90756 0.0615408
1867 1 0.575405 0.866239 0.1413
2313 2 0.633485 0.9245 0.135004
3508 1 0.635448 0.887544 0.120169
3509 2 0.629344 0.898545 0.10262
3510 2 0.615913 0.880193 0.123916
3883 1 0.707729 0.922629 0.111227
3885 2 0.702816 0.933803 0.0953199
4148 2 0.712915 0.884348 0.104491
4149 2 0.71258 0.857482 0.0871575
2086 1 0.843609 0.882116 0.118334
2087 2 0.825976 0.888418 0.108275
2088 2 0.845113 0.86092 0.114308
2388 2 0.775096 0.9425 0.100859
3884 2 0.728094 0.927782 0.114744
4000 1 0.790548 0.926935 0.0678697
4001 2 0.788131 0.905907 0.0671552
4002 2 0.806821 0.930217 0.0555776
4147 1 0.72329 0.865841 0.10301
5632 1 0.846536 0.941771 0.0499264
5633 2 0.853268 0.931621 0.0325067
4593 2 0.883361 0.889066 0.13387
915 2 0.131486 0.0629343 0.223782
2284 1 0.0826283 0.100998 0.159429
2285 2 0.0842329 0.117446 0.17294
2286 2 0.0990062 0.0914284 0.168412
2560 1 0.137828 0.091705 0.190609
3110 2 0.10553 0.139743 0.212847
3193 1 0.0711072 0.0697326 0.262247
3194 2 0.0897948 0.0636253 0.254993
4639 1 0.115204 0.120461 0.249573
4640 2 0.106569 0.101566 0.251891
4641 2 0.123187 0.122899 0.268933
691 1 0.26039 0.102319 0.156266
693 2 0.259176 0.08234 0.152643
2282 2 0.28422 0.0757782 0.193286
2406 2 0.248179 0.132149 0.185737
2561 2 0.145753 0.0764784 0.179114
2562 2 0.155892 0.10136 0.195443
4082 2 0.230199 0.103818 0.284184
5269 1 0.197853 0.112691 0.243924
5270 2 0.19221 0.132525 0.246585
5271 2 0.209809 0.112552 0.227874
5617 1 0.262746 0.0593251 0.261065
5618 2 0.25655 0.0786468 0.268713
5619 2 0.272537 0.0663433 0.243862
1960 1 0.355289 0.0705874 0.262031
1961 2 0.352461 0.0914588 0.258464
1962 2 0.375421 0.0679285 0.255442
2194 1 0.405566 0.101569 0.178407
2195 2 0.398816 0.121598 0.178031
2196 2 0.399135 0.0940348 0.197211
2281 1 0.297753 0.0745963 0.209607
5785 1 0.329885 0.125818 0.248104
5786 2 0.322226 0.116639 0.230409
5787 2 0.343783 0.140525 0.242847
3472 1 0.53079 0.0894836 0.163686
3473 2 0.513654 0.0877161 0.153051
3474 2 0.526303 0.1038 0.178585
4351 1 0.485211 0.100381 0.260802
4352 2 0.494758 0.08301 0.267628
4353 2 0.465466 0.0936962 0.259457
4459 1 0.522928 0.142409 0.22884
4461 2 0.509781 0.129086 0.238089
5902 1 0.471958 0.107711 0.173007
5903 2 0.464374 0.0895594 0.180879
5904 2 0.455651 0.119852 0.177329
5918 2 0.485654 0.120249 0.143155
127 1 0.685543 0.0978881 0.258147
128 2 0.671367 0.112761 0.255689
129 2 0.675851 0.0811816 0.249773
280 1 0.641972 0.0665252 0.230651
281 2 0.626425 0.0751823 0.24274
2257 1 0.600265 0.0946198 0.283891
2258 2 0.581723 0.100095 0.274987
2677 1 0.589898 0.104117 0.148846
2678 2 0.598936 0.118419 0.162174
2679 2 0.572138 0.102084 0.159754
3243 2 0.675777 0.121098 0.148637
5341 1 0.684322 0.0953896 0.182947
5342 2 0.672603 0.096922 0.19968
5343 2 0.676319 0.0785647 0.173447
337 1 0.811429 0.0888413 0.279852
338 2 0.811183 0.105938 0.26709
339 2 0.79208 0.0805055 0.277628
1891 1 0.85208 0.118889 0.153294
1892 2 0.837642 0.120945 0.168614
2536 1 0.742248 0.11338 0.21288
2537 2 0.74966 0.131715 0.207305
2538 2 0.726907 0.10908 0.199342
2722 1 0.739737 0.0715338 0.275921
2723 2 0.733178 0.0815946 0.259919
2782 1 0.806311 0.114841 0.214374
2783 2 0.813035 0.0953908 0.211954
2784 2 0.785672 0.114412 0.216988
5466 2 0.850467 0.0697487 0.255041
3250 1 0.867919 0.0686858 0.180339
3251 2 0.879958 0.0719826 0.196857
3252 2 0.864123 0.0884366 0.174741
4324 1 0.892304 0.116353 0.228315
4325 2 0.911192 0.118034 0.23629
4326 2 0.887765 0.133363 0.21646
5464 1 0.870438 0.0650754 0.255346
5465 2 0.876759 0.0797433 0.241721
542 2 0.0738642 0.183587 0.203669
829 1 0.0914175 0.212058 0.143583
831 2 0.0820603 0.195677 0.152732
1752 2 0.137638 0.233904 0.173387
3109 1 0.103535 0.155411 0.198991
3111 2 0.116567 0.15095 0.182626
4540 1 0.102877 0.245139 0.192412
4541 2 0.0900818 0.260658 0.197641
4542 2 0.0941117 0.240775 0.173383
5236 1 0.119536 0.214913 0.24382
5237 2 0.12936 0.232629 0.239421
5238 2 0.104664 0.217195 0.228756
5333 2 0.0624166 0.283907 0.144502
30 2 0.218894 0.285663 0.186867
513 2 0.192242 0.17394 0.285199
1072 1 0.189698 0.260834 0.260253
1073 2 0.191447 0.269636 0.241414
1074 2 0.177833 0.27508 0.269666
1411 1 0.177633 0.186636 0.163795
1412 2 0.171123 0.206683 0.165709
1413 2 0.16271 0.177157 0.152199
1750 1 0.157558 0.238371 0.16771
1751 2 0.154208 0.255377 0.15506
2404 1 0.241308 0.143699 0.20263
2405 2 0.234743 0.16164 0.194632
2917 1 0.230996 0.274006 0.155003
2918 2 0.229271 0.255058 0.145673
2919 2 0.251504 0.27969 0.151388
3008 2 0.231193 0.241141 0.274391
3009 2 0.249921 0.214589 0.273135
4069 1 0.254298 0.185236 0.244148
4070 2 0.25809 0.168205 0.232866
4071 2 0.244007 0.197068 0.230933
4684 1 0.265989 0.283942 0.264329
4685 2 0.275505 0.269494 0.276396
5209 1 0.168763 0.169765 0.224805
5210 2 0.17118 0.175685 0.204895
5211 2 0.15077 0.180718 0.228198
5920 1 0.234717 0.230599 0.201382
5921 2 0.228287 0.244375 0.216272
5922 2 0.22481 0.239622 0.185206
1168 1 0.401255 0.166662 0.182028
1169 2 0.41566 0.176316 0.17043
1170 2 0.382309 0.175799 0.177499
1390 1 0.317369 0.217211 0.280277
1392 2 0.311643 0.225956 0.262428
1831 1 0.36882 0.216538 0.22165
1832 2 0.3488 0.22318 0.220733
1833 2 0.38034 0.22696 0.234906
2914 1 0.30686 0.236999 0.225471
2915 2 0.288793 0.236029 0.215715
2916 2 0.316411 0.253907 0.215771
4072 1 0.425262 0.215181 0.147051
4073 2 0.42284 0.229781 0.162261
4087 1 0.380593 0.157735 0.236615
4088 2 0.390607 0.159921 0.21877
4089 2 0.380834 0.178208 0.239832
5484 2 0.318609 0.149504 0.278088
5719 1 0.370248 0.275416 0.253835
5720 2 0.390421 0.272497 0.256473
5721 2 0.363819 0.263552 0.269289
5905 1 0.423626 0.236486 0.259059
397 1 0.452686 0.193633 0.283151
399 2 0.447048 0.17371 0.282355
1936 1 0.459273 0.240758 0.207921
1937 2 0.47046 0.252834 0.220487
1938 2 0.472657 0.224079 0.208771
2416 1 0.527595 0.20983 0.263924
2417 2 0.528727 0.230135 0.265445
2418 2 0.520015 0.204103 0.283071
2997 2 0.454537 0.276115 0.173229
3358 1 0.561146 0.227202 0.17572
3359 2 0.551092 0.237685 0.161102
3641 2 0.565671 0.148621 0.239293
3642 2 0.564311 0.177587 0.254395
3889 1 0.538095 0.271964 0.252792
3890 2 0.549684 0.273345 0.235089
4460 2 0.514313 0.161331 0.230609
4755 2 0.4859 0.187976 0.158128
5722 1 0.511483 0.206924 0.202533
5723 2 0.516985 0.208371 0.222877
5724 2 0.529264 0.211251 0.193084
5906 2 0.434383 0.242223 0.242333
5907 2 0.434434 0.220485 0.267315
406 1 0.647053 0.190907 0.178255
407 2 0.660196 0.199738 0.164703
408 2 0.648942 0.203725 0.195021
652 1 0.613759 0.257303 0.164622
653 2 0.614639 0.244502 0.148021
654 2 0.633384 0.256493 0.172217
1381 1 0.57765 0.280802 0.205788
1383 2 0.591851 0.273233 0.192889
2161 1 0.710197 0.270697 0.240634
2163 2 0.699474 0.285609 0.248759
3360 2 0.580168 0.235636 0.177136
3640 1 0.577619 0.164306 0.244987
3727 1 0.614555 0.280913 0.258039
3728 2 0.604622 0.281458 0.240103
3734 2 0.621458 0.235435 0.27637
3735 2 0.618832 0.205179 0.269873
4507 1 0.648394 0.147658 0.257468
4508 2 0.651694 0.160803 0.240961
4509 2 0.627627 0.150537 0.258877
4513 1 0.712688 0.225235 0.285552
4618 1 0.712047 0.162179 0.273017
4619 2 0.704004 0.177951 0.284705
4620 2 0.693862 0.15573 0.264283
4789 1 0.60046 0.145784 0.18666
4790 2 0.59092 0.150883 0.204429
4791 2 0.616536 0.15954 0.185631
5335 1 0.668069 0.255368 0.194843
5336 2 0.668186 0.275245 0.201739
5337 2 0.676499 0.246024 0.212075
5743 1 0.672952 0.209493 0.239062
5744 2 0.690805 0.203326 0.229103
5745 2 0.682976 0.218002 0.255946
427 1 0.822853 0.169585 0.226695
428 2 0.824267 0.148681 0.222698
429 2 0.806264 0.169183 0.239653
628 1 0.844231 0.210876 0.260821
629 2 0.826052 0.220795 0.265656
630 2 0.837251 0.19482 0.249385
694 1 0.787216 0.246374 0.262539
695 2 0.791734 0.25548 0.281397
696 2 0.780135 0.262967 0.251852
1270 1 0.772798 0.170497 0.25932
1271 2 0.754205 0.160134 0.263424
1272 2 0.764999 0.187927 0.251139
1918 1 0.724735 0.193552 0.20568
1919 2 0.729797 0.174109 0.197927
1920 2 0.727398 0.206252 0.189596
2128 1 0.842797 0.278381 0.146528
2129 2 0.834624 0.269464 0.16294
2162 2 0.729027 0.280016 0.239005
2992 1 0.805855 0.257539 0.198111
2993 2 0.784985 0.253126 0.196149
2994 2 0.808373 0.259137 0.21892
3163 1 0.733956 0.150244 0.164712
3164 2 0.747222 0.146164 0.148904
3165 2 0.715149 0.15261 0.155682
3535 1 0.851646 0.204209 0.178973
3536 2 0.839191 0.203692 0.196495
4515 2 0.718821 0.238389 0.269633
4582 1 0.744371 0.249971 0.179703
4583 2 0.725187 0.251604 0.186117
4584 2 0.748489 0.265143 0.165396
541 1 0.942608 0.193121 0.197209
543 2 0.932032 0.192667 0.215574
703 1 0.891896 0.160612 0.184605
704 2 0.891227 0.149899 0.166457
705 2 0.91164 0.168012 0.186886
1276 1 0.907418 0.189891 0.246545
1277 2 0.887884 0.195559 0.25267
1278 2 0.919158 0.197113 0.261545
1354 1 0.93971 0.232506 0.281998
2029 1 0.89024 0.246763 0.200166
2030 2 0.909639 0.239376 0.197941
2031 2 0.878101 0.229725 0.199226
3537 2 0.863728 0.186802 0.180734
3654 2 0.876951 0.246713 0.276914
3692 2 0.892993 0.283007 0.223252
1774 1 0.0775686 0.319489 0.274506
2620 1 0.140023 0.407402 0.162421
2622 2 0.126214 0.422873 0.161266
3388 1 0.0654221 0.360087 0.184861
3389 2 0.0621909 0.34372 0.172785
5021 2 0.14215 0.423575 0.273495
5332 1 0.0766414 0.300542 0.143161
5419 1 0.074338 0.298329 0.216519
5420 2 0.0745515 0.303203 0.236506
5421 2 0.0916458 0.308966 0.20892
5599 1 0.120542 0.334046 0.195308
5600 2 0.131058 0.335981 0.177525
5601 2 0.106224 0.349314 0.193868
28 1 0.211574 0.288575 0.206612
29 2 0.221939 0.306433 0.209446
136 1 0.240344 0.407735 0.233264
137 2 0.240891 0.386772 0.237364
138 2 0.22654 0.406798 0.217237
238 1 0.230334 0.330143 0.244838
239 2 0.249034 0.329443 0.235461
240 2 0.233883 0.316316 0.259551
1744 1 0.174426 0.357691 0.233229
1745 2 0.161483 0.342088 0.227928
1746 2 0.192896 0.347767 0.233795
2263 1 0.164314 0.313457 0.283507
2265 2 0.175194 0.331277 0.282769
2621 2 0.147371 0.406617 0.143258
4686 2 0.282204 0.291967 0.254064
4816 1 0.273441 0.328061 0.203406
4817 2 0.282144 0.34732 0.203482
4818 2 0.283747 0.314573 0.191145
4838 2 0.208697 0.302151 0.143357
4839 2 0.177528 0.305001 0.142921
5020 1 0.151756 0.404999 0.277041
5022 2 0.157319 0.398428 0.257411
5689 1 0.197772 0.408705 0.193575
5690 2 0.180392 0.399393 0.18776
5691 2 0.209739 0.406367 0.176323
283 1 0.306086 0.382043 0.188751
284 2 0.325667 0.375544 0.195527
285 2 0.302416 0.39874 0.201711
982 1 0.31808 0.329187 0.260161
983 2 0.305734 0.346404 0.260871
984 2 0.337124 0.333635 0.253109
1465 1 0.421707 0.402892 0.243941
1466 2 0.401473 0.402827 0.247895
1483 1 0.365409 0.370562 0.220736
1484 2 0.375571 0.378042 0.237583
1485 2 0.380191 0.36876 0.205668
1598 2 0.34253 0.419284 0.250012
2520 2 0.324221 0.29577 0.280882
3577 1 0.332643 0.287952 0.199385
3578 2 0.344727 0.288216 0.216396
3579 2 0.345053 0.289639 0.183053
4694 2 0.297692 0.365889 0.156589
4788 2 0.378262 0.426997 0.195259
5257 1 0.401369 0.364165 0.174967
5258 2 0.422069 0.368968 0.175409
5259 2 0.394068 0.366102 0.155667
5728 1 0.386407 0.302865 0.170181
5729 2 0.404117 0.297132 0.160796
5730 2 0.387836 0.323001 0.16685
778 1 0.507137 0.324036 0.150756
779 2 0.516793 0.330522 0.168282
1140 2 0.466579 0.374118 0.15767
1249 1 0.508968 0.324219 0.261515
1250 2 0.508823 0.345003 0.257276
1251 2 0.48836 0.320302 0.263042
1318 1 0.466451 0.373147 0.202248
1319 2 0.482754 0.37502 0.214945
1320 2 0.453667 0.386158 0.213221
1467 2 0.429775 0.401953 0.263535
1738 1 0.508022 0.380753 0.245476
1739 2 0.523255 0.393769 0.238637
1740 2 0.510491 0.387122 0.265561
1993 1 0.551327 0.425182 0.234789
2995 1 0.45891 0.286267 0.155032
2996 2 0.479746 0.289967 0.156092
3891 2 0.527383 0.290563 0.252627
4044 2 0.559139 0.309162 0.278708
4927 1 0.444934 0.297544 0.24898
4928 2 0.433427 0.313785 0.243467
4929 2 0.438482 0.292056 0.268912
5065 1 0.532838 0.341353 0.20013
5066 2 0.528226 0.342274 0.220555
5067 2 0.552681 0.348679 0.200507
5756 2 0.512338 0.420709 0.171184
592 1 0.591205 0.374711 0.177157
593 2 0.592109 0.39554 0.180863
594 2 0.594929 0.374161 0.156364
1382 2 0.573292 0.298594 0.195597
1733 2 0.672104 0.327513 0.153518
2362 1 0.681917 0.31416 0.278289
2363 2 0.675262 0.329516 0.265961
2878 1 0.657431 0.370441 0.249574
2879 2 0.671633 0.382126 0.23855
2880 2 0.644315 0.385055 0.257779
3729 2 0.600222 0.288291 0.270935
4054 1 0.704059 0.402 0.225611
4168 1 0.648261 0.312706 0.221344
4169 2 0.653008 0.330714 0.231222
4170 2 0.641227 0.300243 0.236913
4291 1 0.617726 0.411656 0.274225
4293 2 0.611713 0.418616 0.255486
4387 1 0.636977 0.335339 0.169603
4388 2 0.621921 0.345329 0.179725
4389 2 0.643083 0.322373 0.184706
5035 1 0.704069 0.342069 0.212149
5036 2 0.703779 0.363121 0.209448
5037 2 0.712688 0.334399 0.194731
349 1 0.794748 0.414696 0.25641
350 2 0.81448 0.41127 0.262897
1522 1 0.757473 0.410948 0.181153
1524 2 0.77744 0.405008 0.185771
1591 1 0.738834 0.398062 0.277878
1592 2 0.736561 0.417918 0.283104
1593 2 0.759501 0.398505 0.272717
2146 1 0.799064 0.327512 0.186386
2147 2 0.78415 0.331456 0.171728
2148 2 0.794968 0.307325 0.189823
2485 1 0.768446 0.301485 0.253077
2486 2 0.753839 0.316504 0.251882
2487 2 0.783803 0.310498 0.265106
3028 1 0.831294 0.314986 0.244351
3029 2 0.847946 0.307576 0.233814
3030 2 0.820407 0.324432 0.229076
3435 2 0.819873 0.321208 0.278404
4055 2 0.715929 0.418082 0.218684
4056 2 0.716892 0.398149 0.242254
5033 2 0.85501 0.308024 0.164111
5034 2 0.83782 0.335034 0.172596
5152 1 0.749167 0.305723 0.151146
5153 2 0.73078 0.315556 0.14775
5311 1 0.856887 0.420715 0.257687
409 1 0.937185 0.413058 0.143406
410 2 0.939124 0.397846 0.156542
967 1 0.912131 0.414945 0.28478
969 2 0.917177 0.39455 0.284082
1091 2 0.898966 0.345463 0.145111
3390 2 0.942764 0.356833 0.203544
3655 1 0.886529 0.364135 0.217694
3656 2 0.892403 0.345806 0.225295
3657 2 0.87308 0.356166 0.203528
3691 1 0.897285 0.303438 0.226522
3693 2 0.915662 0.303787 0.217093
4714 1 0.920933 0.416797 0.22204
4715 2 0.917669 0.420358 0.24211
4716 2 0.90876 0.400362 0.22107
5032 1 0.857761 0.327979 0.171661
5312 2 0.875147 0.420218 0.268409
5313 2 0.858752 0.406281 0.242795
253 1 0.0946304 0.449837 0.184334
254 2 0.0954264 0.460897 0.202102
255 2 0.084163 0.431911 0.189616
4240 1 0.110297 0.529991 0.191238
4241 2 0.0917628 0.53086 0.182969
4242 2 0.10629 0.514287 0.204874
5212 1 0.0931802 0.48313 0.240193
5213 2 0.0785229 0.489704 0.254045
5214 2 0.109625 0.493819 0.246333
116 2 0.190011 0.563991 0.280472
1239 2 0.279703 0.432785 0.229927
1661 2 0.222379 0.515861 0.28082
1864 1 0.173849 0.531201 0.167934
1865 2 0.156361 0.528327 0.17967
1866 2 0.17177 0.516253 0.153369
2695 1 0.228469 0.466875 0.239435
2696 2 0.229164 0.445546 0.241079
2697 2 0.235714 0.472014 0.258646
3098 2 0.16554 0.567883 0.232833
3172 1 0.278538 0.543261 0.277765
4246 1 0.200301 0.529503 0.232573
4247 2 0.206987 0.509976 0.233994
4248 2 0.20897 0.536794 0.215168
4249 1 0.158461 0.454755 0.213425
4250 2 0.143727 0.44257 0.205306
4251 2 0.176859 0.444911 0.211592
4386 2 0.284081 0.485922 0.274345
4411 1 0.256349 0.483739 0.187495
4412 2 0.243957 0.475059 0.20181
4413 2 0.266223 0.498631 0.198684
4632 2 0.253576 0.558708 0.153059
5098 1 0.230297 0.565083 0.180186
5099 2 0.209976 0.559541 0.178888
5740 1 0.147398 0.502601 0.251062
5741 2 0.167107 0.511087 0.250676
5742 2 0.152669 0.486231 0.238769
1237 1 0.300187 0.433446 0.224266
1238 2 0.304555 0.448508 0.238132
1333 1 0.318518 0.565937 0.172917
1334 2 0.324143 0.54633 0.176001
1507 1 0.383862 0.568804 0.277005
1597 1 0.359087 0.42883 0.259047
1599 2 0.367126 0.434722 0.240803
2077 1 0.408404 0.566945 0.212268
2079 2 0.402334 0.547594 0.207558
2851 1 0.363278 0.521913 0.200967
2852 2 0.351027 0.505419 0.195382
2853 2 0.379493 0.518341 0.187571
4384 1 0.299513 0.472726 0.269488
4385 2 0.316338 0.482145 0.278112
4631 2 0.286279 0.559623 0.146499
4729 1 0.35615 0.515896 0.2615
4730 2 0.364949 0.534154 0.267623
4731 2 0.35623 0.518308 0.240057
4786 1 0.371769 0.446378 0.200626
4787 2 0.376321 0.460044 0.185268
5122 1 0.31415 0.487686 0.186445
5123 2 0.318898 0.471763 0.19926
5124 2 0.296306 0.481934 0.178621
5137 1 0.398048 0.48706 0.160429
5138 2 0.400908 0.507013 0.15431
5139 2 0.414061 0.477047 0.152116
5832 2 0.419771 0.564416 0.146858
208 1 0.527945 0.549405 0.227761
209 2 0.52788 0.550824 0.207669
210 2 0.542972 0.562242 0.233921
225 2 0.528515 0.464723 0.270223
1300 1 0.501268 0.564921 0.280518
1301 2 0.507406 0.557049 0.26256
1363 1 0.456398 0.467603 0.143598
1364 2 0.470513 0.483069 0.147804
1365 2 0.469011 0.452309 0.151107
1606 1 0.515183 0.476433 0.228889
1607 2 0.515185 0.4967 0.223884
1608 2 0.494771 0.471625 0.224481
1982 2 0.559725 0.443724 0.161128
1994 2 0.568847 0.437224 0.233743
1995 2 0.53932 0.438886 0.22513
2176 1 0.437078 0.509705 0.244003
2177 2 0.442432 0.50613 0.263843
2178 2 0.429608 0.529843 0.243315
2728 1 0.544115 0.479844 0.14767
2729 2 0.528759 0.493249 0.14445
2730 2 0.557529 0.491697 0.158571
3319 1 0.453462 0.45076 0.233375
3320 2 0.444828 0.469298 0.229904
3321 2 0.4377 0.438867 0.237736
4990 1 0.476533 0.547407 0.190675
4991 2 0.470697 0.567238 0.193066
4992 2 0.467041 0.539471 0.20759
5701 1 0.494662 0.514546 0.14452
5703 2 0.486422 0.527393 0.159874
5755 1 0.50239 0.43286 0.156969
5757 2 0.518633 0.443818 0.149578
1351 1 0.696976 0.54819 0.165975
1352 2 0.696468 0.55134 0.145391
1353 2 0.706025 0.566812 0.17268
1687 1 0.592175 0.570999 0.233816
1689 2 0.607475 0.559656 0.24347
1981 1 0.575863 0.430877 0.162494
1983 2 0.59058 0.444617 0.16704
2377 1 0.647351 0.515915 0.190814
2378 2 0.660334 0.5275 0.178299
2379 2 0.660135 0.506968 0.205516
3265 1 0.600239 0.456555 0.229324
3266 2 0.598173 0.463806 0.209753
3267 2 0.620088 0.462181 0.234174
3811 1 0.629777 0.45829 0.173832
3812 2 0.643717 0.444453 0.181678
3813 2 0.632756 0.478486 0.179851
4078 1 0.634641 0.534548 0.270775
4080 2 0.642862 0.519844 0.258797
4292 2 0.618045 0.429504 0.285394
5011 1 0.661368 0.469719 0.245281
5012 2 0.678315 0.460161 0.239567
5013 2 0.661215 0.458631 0.26293
5867 2 0.574283 0.546169 0.282245
5914 1 0.581312 0.510553 0.18305
5915 2 0.578547 0.531254 0.185316
5916 2 0.602483 0.508252 0.18194
267 2 0.776409 0.542206 0.150052
351 2 0.797347 0.432299 0.245246
1032 2 0.806604 0.455853 0.156128
1523 2 0.76117 0.431588 0.177635
1578 2 0.776708 0.469347 0.281622
1912 1 0.846036 0.47617 0.271296
1914 2 0.851857 0.455777 0.267725
3574 1 0.722188 0.45942 0.216328
3575 2 0.7172 0.475566 0.203402
3576 2 0.738919 0.467691 0.225676
4225 1 0.833109 0.450192 0.184377
4226 2 0.835748 0.470683 0.184402
4227 2 0.851992 0.44321 0.186846
4267 1 0.732126 0.544516 0.26566
4268 2 0.729159 0.556739 0.248015
4269 2 0.730342 0.52586 0.256829
4687 1 0.79573 0.48059 0.238738
4688 2 0.793969 0.499556 0.22994
4689 2 0.812115 0.483521 0.252477
4984 1 0.788358 0.534427 0.215464
4985 2 0.798993 0.536048 0.197047
4986 2 0.779896 0.553723 0.219154
5509 1 0.733173 0.520273 0.205121
5510 2 0.754348 0.518015 0.206361
5511 2 0.730691 0.52541 0.18504
1525 1 0.873432 0.568268 0.178857