LAMMPS data file via write_data, version 23 Oct 2017, timestep = 10000

5963 atoms
4 atom types
3962 bonds
1 bond types
1981 angles
1 angle types

5.2323165922511308e+00 4.4767683407743228e+01 xlo xhi
5.2323165922511308e+00 4.4767683407743228e+01 ylo yhi
5.2323165922511308e+00 4.4767683407743228e+01 zlo zhi

Masses

1 22.99
2 35.45
3 15.9994
4 1.008

Atoms # full

0 1 1 1.0000000000000000e+00 3.7718173423950724e+01 3.1771327248803875e+01 1.7371573212811629e+01 -1 0 0 
1 2 1 1.0000000000000000e+00 3.0110915903259592e+01 3.6825235821961478e+01 2.0909292530472992e+01 -1 -2 0 
2 3 1 1.0000000000000000e+00 2.0290333761508805e+01 1.6417407958126415e+01 7.4490198954192861e+00 0 -1 0 
3 4 1 1.0000000000000000e+00 2.6210944258300572e+01 2.3735040648522492e+01 7.5911614653263424e+00 0 -2 -1 
4 5 1 1.0000000000000000e+00 1.9415556548347176e+01 1.1613325937784108e+01 2.0298010124895590e+01 1 0 0 
5 6 1 1.0000000000000000e+00 2.2587751868496952e+01 1.0453575150379409e+01 4.3962591098420781e+01 0 -1 -1 
6 7 1 1.0000000000000000e+00 3.8110059847122066e+01 2.2077357727706154e+01 3.0432832028501497e+01 -1 0 -1 
7 8 1 1.0000000000000000e+00 6.5851280868252591e+00 8.4332222131895165e+00 1.0886697669007791e+01 1 0 0 
8 9 1 1.0000000000000000e+00 1.2011206725250716e+01 4.3007224275593003e+01 1.9122852908504008e+01 0 -2 -1 
9 10 1 1.0000000000000000e+00 2.7186044954817405e+01 4.2446121775324862e+01 7.6135623401615549e+00 0 -1 0 
10 81 2 -1.0000000000000000e+00 4.0165206958139059e+01 1.6555488110493620e+01 2.3561907502550238e+01 -2 0 0 
11 82 2 -1.0000000000000000e+00 2.6692141845898501e+01 1.8247500086166916e+01 1.5486482029307366e+01 -1 -1 0 
12 83 2 -1.0000000000000000e+00 8.5990096850475570e+00 7.2724137589499680e+00 3.2165154581616697e+01 0 0 1 
13 84 2 -1.0000000000000000e+00 4.2378570284668321e+01 3.1964329063363436e+01 1.3893049222102333e+01 -2 0 0 
14 85 2 -1.0000000000000000e+00 2.8042732465986841e+01 3.0252189363321577e+01 1.1561720231657876e+01 -1 -1 -1 
15 86 2 -1.0000000000000000e+00 7.3525815861562505e+00 2.5446491183892196e+01 3.0225825174928218e+01 0 0 -2 
16 87 2 -1.0000000000000000e+00 3.4294104065759363e+01 2.4274927294260848e+01 1.4435710565670712e+01 -1 0 0 
17 88 2 -1.0000000000000000e+00 3.3805116088013222e+01 1.5733468389702699e+01 2.9566719150698834e+01 -1 0 -1 
18 89 2 -1.0000000000000000e+00 2.8540914841203239e+01 3.4528711088012251e+01 2.1196803781567482e+01 -1 -1 0 
19 90 2 -1.0000000000000000e+00 4.3248361966914736e+01 2.1785248589227574e+01 2.9470274906021668e+01 0 0 -2 
50 161 3 -8.3399999999999996e-01 1.8255265035541811e+01 3.2485421437636845e+01 2.6664572698064131e+01 0 -2 -1 
51 161 4 4.1699999999999998e-01 1.7267131016857974e+01 3.2332735360906419e+01 2.6647712495372041e+01 0 -2 -1 
52 161 4 4.1699999999999998e-01 1.8439833166885620e+01 3.3464616889033451e+01 2.6748920962953402e+01 0 -2 -1 
53 162 3 -8.3399999999999996e-01 3.7505694566033732e+01 4.3366240714755740e+01 6.0689171951106040e+00 1 -1 -1 
54 162 4 4.1699999999999998e-01 3.6602108815836154e+01 4.2995962530016122e+01 5.8534431259456774e+00 1 -1 -1 
55 162 4 4.1699999999999998e-01 3.8017347279998852e+01 4.3510695514510850e+01 4.4757320584332398e+01 1 -1 -2 
56 163 3 -8.3399999999999996e-01 2.5296303923285482e+01 1.4792159814553667e+01 1.3272571804912664e+01 0 -1 0 
57 163 4 4.1699999999999998e-01 2.4645211622597618e+01 1.4034299594635741e+01 1.3314143585429857e+01 0 -1 0 
58 163 4 4.1699999999999998e-01 2.4797945660654321e+01 1.5656226486818468e+01 1.3201647724957251e+01 0 -1 0 
59 164 3 -8.3399999999999996e-01 2.4272646918175855e+01 1.9237413422907753e+01 1.9708197722858422e+01 0 -1 0 
60 164 4 4.1699999999999998e-01 2.4329413159318456e+01 1.8239152794356471e+01 1.9724147808984270e+01 0 -1 0 
61 164 4 4.1699999999999998e-01 2.3616243893833325e+01 1.9522822935258134e+01 1.9009858773134599e+01 0 -1 0 
62 165 3 -8.3399999999999996e-01 3.4822329451586590e+01 3.5708793858745736e+01 2.7309658472347301e+01 0 1 -1 
63 165 4 4.1699999999999998e-01 3.3850970885379738e+01 3.5942992372039321e+01 2.7269430870014666e+01 0 1 -1 
64 165 4 4.1699999999999998e-01 3.5016447655976648e+01 3.4978257798224874e+01 2.6654954283498963e+01 0 1 -1 
65 166 3 -8.3399999999999996e-01 3.5460989979849884e+01 3.1325086622243717e+01 2.3844701983353328e+01 0 0 -1 
66 166 4 4.1699999999999998e-01 3.6373837955969719e+01 3.1044607611736566e+01 2.4141423491284158e+01 0 0 -1 
67 166 4 4.1699999999999998e-01 3.4803013325515550e+01 3.1145721417869222e+01 2.4576067931366143e+01 0 0 -1 
68 167 3 -8.3399999999999996e-01 1.4142521626201159e+01 3.3648038232777395e+01 1.7787269763725817e+01 0 -1 1 
69 167 4 4.1699999999999998e-01 1.4090042173911209e+01 3.4494760172346041e+01 1.7257827146598022e+01 0 -1 1 
70 167 4 4.1699999999999998e-01 1.4323934574256800e+01 3.3865340997267268e+01 1.8746368296166452e+01 0 -1 1 
71 168 3 -8.3399999999999996e-01 1.2498762574261043e+01 1.8441347285094814e+01 4.2227359646660219e+01 2 -2 1 
72 168 4 4.1699999999999998e-01 1.3200113892277752e+01 1.8409375049495367e+01 4.2939458781234883e+01 2 -2 1 
73 168 4 4.1699999999999998e-01 1.2483375376829475e+01 1.9352396404961397e+01 4.1815347838394757e+01 2 -2 1 
74 169 3 -8.3399999999999996e-01 4.1974880230020403e+01 3.3443921763854320e+01 1.9332722578720219e+01 0 0 0 
75 169 4 4.1699999999999998e-01 4.2181435980375070e+01 3.4224169890509053e+01 1.8742341872884193e+01 0 0 0 
76 169 4 4.1699999999999998e-01 4.2198846625224824e+01 3.3674031000007218e+01 2.0279766095769894e+01 0 0 0 
77 170 3 -8.3399999999999996e-01 3.8585624961755165e+01 3.9667451147695189e+01 6.6224264612961283e+00 -1 0 0 
78 170 4 4.1699999999999998e-01 3.9167502631880168e+01 4.0196511848544041e+01 7.2400957084804825e+00 -1 0 0 
79 170 4 4.1699999999999998e-01 3.7641434161230315e+01 3.9988174162495838e+01 6.6975642504980826e+00 -1 0 0 
80 171 3 -8.3399999999999996e-01 3.4594177920842085e+01 1.2098674990521964e+01 2.3987630242920535e+01 -1 0 1 
81 171 4 4.1699999999999998e-01 3.4228211956918074e+01 1.1713417097216979e+01 2.3140489785732008e+01 -1 0 1 
82 171 4 4.1699999999999998e-01 3.5183751656118773e+01 1.1424756556970998e+01 2.4432870454026695e+01 -1 0 1 
83 172 3 -8.3399999999999996e-01 3.2098600983217352e+01 3.8002952515404637e+01 4.4414839111972427e+01 1 0 -1 
84 172 4 4.1699999999999998e-01 3.2066939100093641e+01 3.7094435146167115e+01 5.2961199849632496e+00 1 0 0 
85 172 4 4.1699999999999998e-01 3.2664345960507767e+01 3.7972220538305734e+01 4.3590831100081985e+01 1 0 -1 
86 173 3 -8.3399999999999996e-01 1.3016622334102237e+01 2.2778513084682871e+01 9.1438483029330300e+00 2 1 0 
87 173 4 4.1699999999999998e-01 1.3604462200266958e+01 2.3273707283988657e+01 9.7835583890045754e+00 2 1 0 
88 173 4 4.1699999999999998e-01 1.3566206247535652e+01 2.2439296420654539e+01 8.3803747867387379e+00 2 1 0 
89 174 3 -8.3399999999999996e-01 4.4357615748707516e+01 4.4433746264900563e+01 5.6907388495523108e+00 -2 1 1 
90 174 4 4.1699999999999998e-01 4.4450290571028845e+01 5.4907952054731410e+00 4.4425820459511797e+01 -2 2 0 
91 174 4 4.1699999999999998e-01 4.4376758388972306e+01 4.3476809931312822e+01 5.4010710132781128e+00 -2 1 1 
92 175 3 -8.3399999999999996e-01 2.0721806944834981e+01 2.0842085916200954e+01 4.3571019998017768e+01 -2 -1 -1 
93 175 4 4.1699999999999998e-01 2.1298595627314022e+01 2.0135617799578529e+01 4.3160874581151525e+01 -2 -1 -1 
94 175 4 4.1699999999999998e-01 2.1110529651904059e+01 2.1121556111604335e+01 4.4448968310119348e+01 -2 -1 -1 
95 176 3 -8.3399999999999996e-01 3.3729838632477410e+01 4.2104067553585786e+01 1.4431843761481616e+01 -1 0 0 
96 176 4 4.1699999999999998e-01 3.4272797758948485e+01 4.2935251585175948e+01 1.4551549863305093e+01 -1 0 0 
97 176 4 4.1699999999999998e-01 3.3797456089383232e+01 4.1540333587033594e+01 1.5255029708689753e+01 -1 0 0 
98 177 3 -8.3399999999999996e-01 2.1657192055379436e+01 1.6847177481497596e+01 2.5607757111829471e+01 0 -1 1 
99 177 4 4.1699999999999998e-01 2.0741914345350690e+01 1.7103340604049201e+01 2.5918640305156391e+01 0 -1 1 
100 177 4 4.1699999999999998e-01 2.1986222455563990e+01 1.6070232848464400e+01 2.6144504171967881e+01 0 -1 1 
101 178 3 -8.3399999999999996e-01 2.0494859193949345e+01 1.9551110189749281e+01 3.3394389502706211e+01 1 -2 0 
102 178 4 4.1699999999999998e-01 2.0072030060697557e+01 1.9805786557100099e+01 3.2524701819577480e+01 1 -2 0 
103 178 4 4.1699999999999998e-01 1.9802234951797264e+01 1.9555503834338701e+01 3.4115675697887468e+01 1 -2 0 
104 179 3 -8.3399999999999996e-01 1.3561985064844331e+01 4.1907973102946890e+01 2.6793936130578139e+01 0 -1 0 
105 179 4 4.1699999999999998e-01 1.4556053735861219e+01 4.1978910579206435e+01 2.6876379061547897e+01 0 -1 0 
106 179 4 4.1699999999999998e-01 1.3152915143466164e+01 4.1881645446966644e+01 2.7706059951902770e+01 0 -1 0 
107 180 3 -8.3399999999999996e-01 4.2217326025321150e+01 1.9308657704120868e+01 3.9017822732124053e+01 0 1 0 
108 180 4 4.1699999999999998e-01 4.2174648487407659e+01 1.8951520873801350e+01 3.8084744295373007e+01 0 1 0 
109 180 4 4.1699999999999998e-01 4.1737213436052350e+01 2.0184769494795063e+01 3.9061666733812451e+01 0 1 0 
110 181 3 -8.3399999999999996e-01 8.2223682576726400e+00 1.3063916427801253e+01 1.5504368080703006e+01 0 1 2 
111 181 4 4.1699999999999998e-01 9.0214125512886945e+00 1.3244695792041389e+01 1.6077820979585262e+01 0 1 2 
112 181 4 4.1699999999999998e-01 8.5003485341539538e+00 1.2534933183386523e+01 1.4702554511983470e+01 0 1 2 
113 182 3 -8.3399999999999996e-01 2.3492104313755977e+01 2.6464329663976041e+01 5.9263787968253041e+00 1 0 -1 
114 182 4 4.1699999999999998e-01 2.2871581093896147e+01 2.5781177922807402e+01 6.3114225187936164e+00 1 0 -1 
115 182 4 4.1699999999999998e-01 2.4024426839685827e+01 2.6883310168620628e+01 6.6619668451665763e+00 1 0 -1 
116 183 3 -8.3399999999999996e-01 1.6185714750028989e+01 2.7927050649751468e+01 3.9787649733342995e+01 0 0 0 
117 183 4 4.1699999999999998e-01 1.5388777594399514e+01 2.7580822462106958e+01 4.0282644191053663e+01 0 0 0 
118 183 4 4.1699999999999998e-01 1.5996672783191755e+01 2.7921005207169085e+01 3.8805698380050607e+01 0 0 0 
119 184 3 -8.3399999999999996e-01 3.9594743386493953e+01 1.1071172088676786e+01 1.6833220034484317e+01 0 0 0 
120 184 4 4.1699999999999998e-01 3.9131374401068463e+01 1.0435595875387847e+01 1.7450745468601767e+01 0 0 0 
121 184 4 4.1699999999999998e-01 4.0218874952626145e+01 1.1650226789624131e+01 1.7357774841674139e+01 0 0 0 
122 185 3 -8.3399999999999996e-01 2.4582464728500213e+01 1.3992616248513160e+01 7.7399510390284494e+00 0 1 0 
123 185 4 4.1699999999999998e-01 2.5312501806389744e+01 1.3334020405117995e+01 7.5574641895017276e+00 0 1 0 
124 185 4 4.1699999999999998e-01 2.3933772668377522e+01 1.3599142912723048e+01 8.3913987068513478e+00 0 1 0 
125 186 3 -8.3399999999999996e-01 2.4496809544271368e+01 2.4408300276680105e+01 1.1461873751373677e+01 0 0 0 
126 186 4 4.1699999999999998e-01 2.5216755271514558e+01 2.3942757167479481e+01 1.0947137243866731e+01 0 0 0 
127 186 4 4.1699999999999998e-01 2.4597482244427518e+01 2.5397522196119464e+01 1.1355536501267629e+01 0 0 0 
128 187 3 -8.3399999999999996e-01 6.5764458202811475e+00 2.5993674682892209e+01 7.5694315656330433e+00 0 0 0 
129 187 4 4.1699999999999998e-01 6.2043614847904260e+00 2.6135569693385641e+01 6.6521395296252255e+00 0 0 0 
130 187 4 4.1699999999999998e-01 5.8676411089312053e+00 2.5609163261726046e+01 8.1608292866806806e+00 0 0 0 
131 188 3 -8.3399999999999996e-01 2.8084795584925054e+01 2.1131194371254498e+01 1.5548114629547467e+01 -1 0 -1 
132 188 4 4.1699999999999998e-01 2.7689055516292274e+01 2.1807373514322940e+01 1.4926684579053715e+01 -1 0 -1 
133 188 4 4.1699999999999998e-01 2.7431831299208579e+01 2.0387395494680987e+01 1.5690966970602679e+01 -1 0 -1 
134 189 3 -8.3399999999999996e-01 3.4433367680446494e+01 1.1150882418745145e+01 4.1737385757414813e+01 -1 -1 0 
135 189 4 4.1699999999999998e-01 3.4047170107845623e+01 1.1373446465262445e+01 4.0842220521343165e+01 -1 -1 0 
136 189 4 4.1699999999999998e-01 3.5412912180207350e+01 1.1352122699065092e+01 4.1737163898026282e+01 -1 -1 0 
137 190 3 -8.3399999999999996e-01 1.2748004410188146e+01 2.6353632353515380e+01 4.3549552678786135e+01 1 -1 -1 
138 190 4 4.1699999999999998e-01 1.3678436206228856e+01 2.6306847841335070e+01 4.3913020658715446e+01 1 -1 -1 
139 190 4 4.1699999999999998e-01 1.2218703996674947e+01 2.5575309749829739e+01 4.3887275126745337e+01 1 -1 -1 
140 191 3 -8.3399999999999996e-01 2.6789909530052814e+01 1.0368134451336742e+01 4.0936453840434083e+01 1 0 0 
141 191 4 4.1699999999999998e-01 2.7468438974371843e+01 9.6477963118917316e+00 4.0792511108737834e+01 1 0 0 
142 191 4 4.1699999999999998e-01 2.6974486216163641e+01 1.0831519559260837e+01 4.1803176776064390e+01 1 0 0 
143 192 3 -8.3399999999999996e-01 4.2499092974730424e+01 2.7086235453018428e+01 6.8668924654724295e+00 0 -1 0 
144 192 4 4.1699999999999998e-01 4.2523513077832540e+01 2.6904288093054664e+01 5.8838865878752182e+00 0 -1 0 
145 192 4 4.1699999999999998e-01 4.2887548582818653e+01 2.6307638272719188e+01 7.3597307789497126e+00 0 -1 0 
146 193 3 -8.3399999999999996e-01 1.0343932321461979e+01 3.1413764737586718e+01 1.0041443392267780e+01 -1 -1 0 
147 193 4 4.1699999999999998e-01 9.4507891804832802e+00 3.1714082186648660e+01 9.7066209022695418e+00 -1 -1 0 
148 193 4 4.1699999999999998e-01 1.1059365921187769e+01 3.1746857283653647e+01 9.4272725377550231e+00 -1 -1 0 
149 194 3 -8.3399999999999996e-01 3.9837838320270087e+01 4.2303088906585991e+01 2.3765458052378470e+01 -1 -1 0 
150 194 4 4.1699999999999998e-01 3.9076854847150514e+01 4.2473400976344649e+01 2.3139438105579814e+01 -1 -1 0 
151 194 4 4.1699999999999998e-01 4.0703106567322372e+01 4.2422985706343809e+01 2.3278695535083148e+01 -1 -1 0 
152 195 3 -8.3399999999999996e-01 3.0168027946998588e+01 7.3825833580120896e+00 3.1193482173250086e+01 0 -1 -1 
153 195 4 4.1699999999999998e-01 2.9535387156488710e+01 7.5318173056063973e+00 3.0433550821755851e+01 0 -1 -1 
154 195 4 4.1699999999999998e-01 3.0238461257993531e+01 8.2186093931813868e+00 3.1737633546681788e+01 0 -1 -1 
155 196 3 -8.3399999999999996e-01 2.7936092181788382e+01 1.6093771530183140e+01 5.4495978733889263e+00 1 -1 0 
156 196 4 4.1699999999999998e-01 2.7222909934303242e+01 1.6595390049439906e+01 5.9392421253921261e+00 1 -1 0 
157 196 4 4.1699999999999998e-01 2.8160328096600026e+01 1.6575200916557652e+01 4.4137646143427766e+01 1 -1 -1 
158 197 3 -8.3399999999999996e-01 3.1635724769696608e+01 3.3137172291312680e+01 4.1381337280384415e+01 0 0 -2 
159 197 4 4.1699999999999998e-01 3.1564291948508366e+01 3.4079451207210795e+01 4.1054214479723171e+01 0 0 -2 
160 197 4 4.1699999999999998e-01 3.0757400604642793e+01 3.2849384695087089e+01 4.1763081304501156e+01 0 0 -2 
161 198 3 -8.3399999999999996e-01 2.6518380210099831e+01 1.4863592412901882e+01 3.1429145882185971e+01 -1 -1 -1 
162 198 4 4.1699999999999998e-01 2.7307063551638759e+01 1.5171556722158796e+01 3.0897035888368233e+01 -1 -1 -1 
163 198 4 4.1699999999999998e-01 2.6690554958745718e+01 1.5020619013346440e+01 3.2401617107177202e+01 -1 -1 -1 
164 199 3 -8.3399999999999996e-01 3.3542807762370103e+01 3.5638600618078442e+01 8.6856685861001743e+00 0 -2 1 
165 199 4 4.1699999999999998e-01 3.4503234250466804e+01 3.5915081263795230e+01 8.6518969454742169e+00 0 -2 1 
166 199 4 4.1699999999999998e-01 3.3275383522691456e+01 3.5254089034978293e+01 7.8021311931478330e+00 0 -2 1 
167 200 3 -8.3399999999999996e-01 8.0072684093821778e+00 3.9589978710435027e+01 4.4388019105527086e+01 0 0 -1 
168 200 4 4.1699999999999998e-01 7.8233681204212440e+00 4.0443011835635929e+01 5.3410336729404460e+00 0 0 0 
169 200 4 4.1699999999999998e-01 8.6518982929826542e+00 3.9764365184967097e+01 4.3643677375264538e+01 0 0 -1 
170 201 3 -8.3399999999999996e-01 3.5600870658381204e+01 2.6560635053309426e+01 9.8969567849125095e+00 0 2 0 
171 201 4 4.1699999999999998e-01 3.5525254494709280e+01 2.6869751723208815e+01 8.9489415113747821e+00 0 2 0 
172 201 4 4.1699999999999998e-01 3.4911942294180676e+01 2.5857845016396979e+01 1.0074340470195395e+01 0 2 0 
173 202 3 -8.3399999999999996e-01 3.2416738759062483e+01 3.7387187405857333e+01 3.2725308792265437e+01 0 -2 -1 
174 202 4 4.1699999999999998e-01 3.3108744001882130e+01 3.7624097883286673e+01 3.2043395339978048e+01 0 -2 -1 
175 202 4 4.1699999999999998e-01 3.2783832101949955e+01 3.6694280292586811e+01 3.3345893101366734e+01 0 -2 -1 
176 203 3 -8.3399999999999996e-01 2.7772340581764155e+01 1.6625788974802816e+01 3.3354057174911745e+01 -1 2 1 
177 203 4 4.1699999999999998e-01 2.8718492942378397e+01 1.6344519543071634e+01 3.3514335473523708e+01 -1 2 1 
178 203 4 4.1699999999999998e-01 2.7754070311321062e+01 1.7366939061144357e+01 3.2682964616690974e+01 -1 2 1 
179 204 3 -8.3399999999999996e-01 6.9497378279108810e+00 2.1953482432130961e+01 3.2773495926017269e+01 -2 -2 0 
180 204 4 4.1699999999999998e-01 6.7099814559589230e+00 2.0997755909429713e+01 3.2944101163538235e+01 -2 -2 0 
181 204 4 4.1699999999999998e-01 7.4206615901295034e+00 2.2027172385116117e+01 3.1894404032557610e+01 -2 -2 0 
182 205 3 -8.3399999999999996e-01 2.4647335262792360e+01 1.0292219805057609e+01 3.9206724254440637e+01 0 1 -1 
183 205 4 4.1699999999999998e-01 2.4189542881229663e+01 9.4162924325024946e+00 3.9358969174346505e+01 0 1 -1 
184 205 4 4.1699999999999998e-01 2.5279983388440041e+01 1.0472987539419901e+01 3.9959771721983707e+01 0 1 -1 
185 206 3 -8.3399999999999996e-01 2.9486407527181843e+01 3.3133046920047285e+01 3.8102564142661066e+01 0 -1 0 
186 206 4 4.1699999999999998e-01 3.0427854425882529e+01 3.2824345432969551e+01 3.7966969793585079e+01 0 -1 0 
187 206 4 4.1699999999999998e-01 2.8987235011849741e+01 3.3070031663353930e+01 3.7238352546308690e+01 0 -1 0 
188 207 3 -8.3399999999999996e-01 1.6014385481585737e+01 3.1775476292998405e+01 6.4735222119396578e+00 1 0 0 
189 207 4 4.1699999999999998e-01 1.5817572980791304e+01 3.1114585947079846e+01 7.1977396691928801e+00 1 0 0 
190 207 4 4.1699999999999998e-01 1.5585606906265664e+01 3.1474199025667684e+01 5.6218271424380504e+00 1 0 0 
191 208 3 -8.3399999999999996e-01 1.7149891240887449e+01 3.6222637919392753e+01 2.4543112220224579e+01 0 -1 -1 
192 208 4 4.1699999999999998e-01 1.6184865877177270e+01 3.6216176202881670e+01 2.4805193793701910e+01 0 -1 -1 
193 208 4 4.1699999999999998e-01 1.7626626926751349e+01 3.6944645860640648e+01 2.5044539109461191e+01 0 -1 -1 
194 209 3 -8.3399999999999996e-01 4.3998783190747517e+01 8.9502722310006764e+00 2.4984401861698473e+01 0 1 1 
195 209 4 4.1699999999999998e-01 4.3158040976750264e+01 9.1066301062391606e+00 2.4466030945256076e+01 0 1 1 
196 209 4 4.1699999999999998e-01 4.3820913428813789e+01 9.0910286123979311e+00 2.5958340265454808e+01 0 1 1 
197 210 3 -8.3399999999999996e-01 2.4949475017877880e+01 3.0533039664072721e+01 1.3462543636090187e+01 -1 -1 -1 
198 210 4 4.1699999999999998e-01 2.5472392366209103e+01 3.0374702903670254e+01 1.2624994549382851e+01 -1 -1 -1 
199 210 4 4.1699999999999998e-01 2.5377540582905763e+01 3.1267705211256768e+01 1.3988878268909835e+01 -1 -1 -1 
200 211 3 -8.3399999999999996e-01 2.0108818771479427e+01 2.7714913786619860e+01 2.6795856805989459e+01 -1 -1 1 
201 211 4 4.1699999999999998e-01 1.9854487233380265e+01 2.8483965293926758e+01 2.6209447160654349e+01 -1 -1 1 
202 211 4 4.1699999999999998e-01 2.0714246905333123e+01 2.7098146990319826e+01 2.6292809120160211e+01 -1 -1 1 
203 212 3 -8.3399999999999996e-01 3.1569009169315525e+01 4.0888810227210172e+01 4.3275586996672203e+01 -1 -1 -2 
204 212 4 4.1699999999999998e-01 3.1533128439655485e+01 4.1306777876767235e+01 4.4183341352762291e+01 -1 -1 -2 
205 212 4 4.1699999999999998e-01 3.1443713084357796e+01 3.9900173788322896e+01 4.3358660403997064e+01 -1 -1 -2 
206 213 3 -8.3399999999999996e-01 8.3271929033614249e+00 2.2204109996269093e+01 8.4919506223792922e+00 0 0 1 
207 213 4 4.1699999999999998e-01 8.1299058894896827e+00 2.1670896121919405e+01 9.3146073017559239e+00 0 0 1 
208 213 4 4.1699999999999998e-01 7.6537422987467512e+00 2.1987794387644310e+01 7.7850738566762843e+00 0 0 1 
209 214 3 -8.3399999999999996e-01 3.6081213243732925e+01 6.2312856533554024e+00 4.3194629091825824e+01 -1 -1 1 
210 214 4 4.1699999999999998e-01 3.7044873881228760e+01 5.9641639153033417e+00 4.3192375182318997e+01 -1 -1 1 
211 214 4 4.1699999999999998e-01 3.6004889201914665e+01 7.2055270855463398e+00 4.2982427424767565e+01 -1 -1 1 
212 215 3 -8.3399999999999996e-01 3.8191159767482901e+01 4.0900367025789471e+01 3.5607215821511339e+01 -1 -1 -1 
213 215 4 4.1699999999999998e-01 3.8765957922549589e+01 4.1696824575573558e+01 3.5419429509017654e+01 -1 -1 -1 
214 215 4 4.1699999999999998e-01 3.8769126520356870e+01 4.0093393365428774e+01 3.5728665905157101e+01 -1 -1 -1 
215 216 3 -8.3399999999999996e-01 8.6203324850940870e+00 3.8275302589678248e+01 1.8710022309046590e+01 0 0 0 
216 216 4 4.1699999999999998e-01 8.2852620204996885e+00 3.9008627276568966e+01 1.9301601745349572e+01 0 0 0 
217 216 4 4.1699999999999998e-01 8.3859211166406311e+00 3.8480278054121584e+01 1.7759738127401761e+01 0 0 0 
218 217 3 -8.3399999999999996e-01 3.1884430047979034e+01 5.9600781417691184e+00 2.2408834204421041e+01 -1 0 1 
219 217 4 4.1699999999999998e-01 3.2736778723607998e+01 5.6787163524265587e+00 2.2849673200168258e+01 -1 0 1 
220 217 4 4.1699999999999998e-01 3.1185949052189841e+01 5.2598060642835458e+00 2.2556295717256592e+01 -1 0 1 
221 218 3 -8.3399999999999996e-01 2.5287738617423365e+01 4.2357713527199898e+01 9.1561146049574180e+00 0 -1 0 
222 218 4 4.1699999999999998e-01 2.4678952469721725e+01 4.1576187947753525e+01 9.0197354734027719e+00 0 -1 0 
223 218 4 4.1699999999999998e-01 2.5915997175794622e+01 4.2163346772304429e+01 9.9094510030699077e+00 0 -1 0 
224 219 3 -8.3399999999999996e-01 3.8321525325037008e+01 2.3092610817985651e+01 1.9852033103787672e+01 -1 -1 -1 
225 219 4 4.1699999999999998e-01 3.8937349048825453e+01 2.2762094920107643e+01 2.0567241210813833e+01 -1 -1 -1 
226 219 4 4.1699999999999998e-01 3.8064516581722131e+01 2.2332037963683980e+01 1.9255813243678233e+01 -1 -1 -1 
227 220 3 -8.3399999999999996e-01 5.8198594880418568e+00 6.5027088076926649e+00 2.4930246791296355e+01 0 2 0 
228 220 4 4.1699999999999998e-01 6.1762886197042821e+00 6.4519249409657498e+00 2.5863190351000828e+01 0 2 0 
229 220 4 4.1699999999999998e-01 5.3768924880650726e+00 7.3882777835411346e+00 2.4790418629665332e+01 0 2 0 
230 221 3 -8.3399999999999996e-01 1.1640042534451430e+01 2.6031626510231177e+01 2.6304364977655410e+01 2 0 0 
231 221 4 4.1699999999999998e-01 1.0780569412970536e+01 2.6231711882706268e+01 2.5833968658553193e+01 2 0 0 
232 221 4 4.1699999999999998e-01 1.1675338987674749e+01 2.5059182414591064e+01 2.6534819135159665e+01 2 0 0 
233 222 3 -8.3399999999999996e-01 3.0961021827936978e+01 2.0375077212945882e+01 3.4337848556102280e+01 0 0 -1 
234 222 4 4.1699999999999998e-01 3.1184434331891683e+01 1.9552174926422158e+01 3.3815430076189173e+01 0 0 -1 
235 222 4 4.1699999999999998e-01 3.1406721981532588e+01 2.1166593334729068e+01 3.3919690214759534e+01 0 0 -1 
236 223 3 -8.3399999999999996e-01 3.1040495454249463e+01 2.9235925320242945e+01 3.9149751978413946e+01 -2 0 -1 
237 223 4 4.1699999999999998e-01 3.0117623220772561e+01 2.9190172738583147e+01 3.9532132563629141e+01 -2 0 -1 
238 223 4 4.1699999999999998e-01 3.1158310661406770e+01 2.8507141218760939e+01 3.8475219031157259e+01 -2 0 -1 
239 224 3 -8.3399999999999996e-01 2.1336413752856501e+01 3.3505370755724158e+01 3.1528516535126670e+01 0 -1 0 
240 224 4 4.1699999999999998e-01 2.1168351579630610e+01 3.4458569973801879e+01 3.1277176693199213e+01 0 -1 0 
241 224 4 4.1699999999999998e-01 2.1843713077181857e+01 3.3472201141286405e+01 3.2389648827708477e+01 0 -1 0 
242 225 3 -8.3399999999999996e-01 7.9104799343195653e+00 2.1227860649986798e+01 1.1088626421380471e+01 0 1 -1 
243 225 4 4.1699999999999998e-01 7.8957919157062069e+00 2.2218174998433948e+01 1.1226698651953409e+01 0 1 -1 
244 225 4 4.1699999999999998e-01 7.4989359745176252e+00 2.0774918888349958e+01 1.1879497285202021e+01 0 1 -1 
245 226 3 -8.3399999999999996e-01 4.4518764956143535e+01 4.2039170550645743e+01 3.3149732412266971e+01 0 1 -1 
246 226 4 4.1699999999999998e-01 4.4417613380442532e+01 4.1572588942036482e+01 3.2271055864811046e+01 0 1 -1 
247 226 4 4.1699999999999998e-01 5.5299315693077631e+00 4.2867466616207743e+01 3.3026320582425491e+01 1 1 -1 
248 227 3 -8.3399999999999996e-01 1.2277565374435063e+01 2.5558467300197677e+01 2.3068176621040863e+01 0 -1 -1 
249 227 4 4.1699999999999998e-01 1.3172217678904140e+01 2.5977441760191788e+01 2.2913066214199148e+01 0 -1 -1 
250 227 4 4.1699999999999998e-01 1.1602769332374820e+01 2.5979426850439342e+01 2.2462004548214622e+01 0 -1 -1 
251 228 3 -8.3399999999999996e-01 7.9868244322537292e+00 2.2740592497665837e+01 4.1558364957666534e+01 1 0 -3 
252 228 4 4.1699999999999998e-01 7.0910549095116941e+00 2.2979597498967806e+01 4.1933164621769457e+01 1 0 -3 
253 228 4 4.1699999999999998e-01 7.8957433225353553e+00 2.1946027938471651e+01 4.0958054845399452e+01 1 0 -3 
254 229 3 -8.3399999999999996e-01 4.2603355779542163e+01 3.0873866665008475e+01 3.3996599636039676e+01 0 0 0 
255 229 4 4.1699999999999998e-01 4.2360984738302044e+01 3.0306146558805214e+01 3.4783334392194767e+01 0 0 0 
256 229 4 4.1699999999999998e-01 4.2366813967174160e+01 3.1826546233801039e+01 3.4187530773581074e+01 0 0 0 
257 230 3 -8.3399999999999996e-01 3.3463759847845367e+01 1.0907138430208196e+01 1.8715377215852456e+01 0 2 -1 
258 230 4 4.1699999999999998e-01 3.2612515583407941e+01 1.1142427534824165e+01 1.8246307517832122e+01 0 2 -1 
259 230 4 4.1699999999999998e-01 3.4205602360123194e+01 1.1480213634739744e+01 1.8367154792647099e+01 0 2 -1 
260 231 3 -8.3399999999999996e-01 8.1676182875947561e+00 3.9469533795345612e+01 8.1202043011360239e+00 0 0 0 
261 231 4 4.1699999999999998e-01 8.8682191814514137e+00 3.8765163551236810e+01 8.2343191785958325e+00 0 0 0 
262 231 4 4.1699999999999998e-01 7.2842575929344981e+00 3.9035463276678676e+01 7.9434023000330640e+00 0 0 0 
263 232 3 -8.3399999999999996e-01 3.7817401232101055e+01 2.1825747864545640e+01 7.3562365853231313e+00 0 1 0 
264 232 4 4.1699999999999998e-01 3.7595539686772717e+01 2.2800308230352151e+01 7.3243814708000823e+00 0 1 0 
265 232 4 4.1699999999999998e-01 3.6972553521501787e+01 2.1293019469650972e+01 7.4056085505706619e+00 0 1 0 
266 233 3 -8.3399999999999996e-01 2.7252958633499038e+01 4.4348017290554154e+01 1.2992848273899412e+01 1 -2 0 
267 233 4 4.1699999999999998e-01 2.7727611334205701e+01 4.3467856736619055e+01 1.2997824419954473e+01 1 -2 0 
268 233 4 4.1699999999999998e-01 2.7148693303680552e+01 4.4665153845838837e+01 1.2050215555420753e+01 1 -2 0 
269 234 3 -8.3399999999999996e-01 1.8403194743572222e+01 2.2330058853065172e+01 2.5099840213906745e+01 1 1 1 
270 234 4 4.1699999999999998e-01 1.7894570853480417e+01 2.1898025486164752e+01 2.5844592157215867e+01 1 1 1 
271 234 4 4.1699999999999998e-01 1.9383356522056232e+01 2.2190860687179235e+01 2.5240941191740621e+01 1 1 1 
272 235 3 -8.3399999999999996e-01 2.5507905484595167e+01 3.0624022722224858e+01 2.0571998165857238e+01 0 0 0 
273 235 4 4.1699999999999998e-01 2.5095729543488261e+01 3.0417260918147203e+01 1.9684663709239807e+01 0 0 0 
274 235 4 4.1699999999999998e-01 2.6503738101633523e+01 3.0571787313137815e+01 2.0497228887756162e+01 0 0 0 
275 236 3 -8.3399999999999996e-01 1.5949546574425007e+01 6.4171073997193862e+00 2.0780344695217750e+01 -1 1 0 
276 236 4 4.1699999999999998e-01 1.6278734392119993e+01 5.4728920012047766e+00 2.0770658641929018e+01 -1 1 0 
277 236 4 4.1699999999999998e-01 1.6389760626176894e+01 6.9159288357225774e+00 2.1526930181020777e+01 -1 1 0 
278 237 3 -8.3399999999999996e-01 3.0821121253070142e+01 2.2519349256793745e+01 3.7043293678765039e+01 -1 0 0 
279 237 4 4.1699999999999998e-01 3.1352792862712572e+01 2.2495709670150205e+01 3.7889915075984113e+01 -1 0 0 
280 237 4 4.1699999999999998e-01 3.0576618759495549e+01 2.1586952383893212e+01 3.6777106757714165e+01 -1 0 0 
281 238 3 -8.3399999999999996e-01 1.9482433983015842e+01 3.0620614821495813e+01 1.5666142324004392e+01 1 -1 0 
282 238 4 4.1699999999999998e-01 1.8801436499616191e+01 3.0913993595305179e+01 1.6337091081113705e+01 1 -1 0 
283 238 4 4.1699999999999998e-01 1.9755711748609020e+01 2.9678174447106340e+01 1.5858824906141828e+01 1 -1 0 
284 239 3 -8.3399999999999996e-01 2.7606094533254833e+01 1.5294519157166702e+01 1.4675717632909320e+01 1 -1 0 
285 239 4 4.1699999999999998e-01 2.6749011121149678e+01 1.5028387977323955e+01 1.4234601397693766e+01 1 -1 0 
286 239 4 4.1699999999999998e-01 2.7465682161522437e+01 1.6136955382592564e+01 1.5195897237606665e+01 1 -1 0 
287 240 3 -8.3399999999999996e-01 7.2511418743878124e+00 4.0017129838832737e+01 3.1537505337995771e+01 0 0 -1 
288 240 4 4.1699999999999998e-01 7.0994641700883543e+00 3.9540835680328350e+01 3.2403611179708967e+01 0 0 -1 
289 240 4 4.1699999999999998e-01 8.1166606425516790e+00 4.0516306788885892e+01 3.1578749802759660e+01 0 0 -1 
290 241 3 -8.3399999999999996e-01 1.5487603697945548e+01 3.2430578503076561e+01 2.6114766674935101e+01 1 -1 0 
291 241 4 4.1699999999999998e-01 1.4805094591802826e+01 3.1879986173292522e+01 2.5634108768807884e+01 1 -1 0 
292 241 4 4.1699999999999998e-01 1.5026043481093009e+01 3.3105326033872160e+01 2.6690685056242565e+01 1 -1 0 
293 242 3 -8.3399999999999996e-01 1.5267890149057088e+01 3.6583786287465692e+01 3.3907214314018695e+01 -1 -1 0 
294 242 4 4.1699999999999998e-01 1.4974600553009028e+01 3.5823654261166539e+01 3.3327399864204580e+01 -1 -1 0 
295 242 4 4.1699999999999998e-01 1.6241587152347392e+01 3.6488659379965739e+01 3.4114256347612155e+01 -1 -1 0 
296 243 3 -8.3399999999999996e-01 4.1375018947249153e+01 2.5777150500637898e+01 3.6962020815986577e+01 -2 0 -1 
297 243 4 4.1699999999999998e-01 4.1725607098011757e+01 2.6713681063019912e+01 3.6962126279974079e+01 -2 0 -1 
298 243 4 4.1699999999999998e-01 4.2105535794712495e+01 2.5147752812822791e+01 3.7226990994618774e+01 -2 0 -1 