LAMMPS data file via write_data, version 23 Oct 2017, timestep = 10000

5963 atoms
4 atom types
3962 bonds
1 bond types
1981 angles
1 angle types

-19.7676834077 19.7676834077 xlo xhi
-19.7676834077 19.7676834077 ylo yhi
-19.7676834077 19.7676834077 zlo zhi

Masses

1 22.99
2 35.45
3 15.9994
4 1.008

Atoms # full

1 1 1 1.0 17.9504900162 -7.76403956669 17.3715732128
2 2 1 1.0 10.3432324955 -2.71013099353 -18.626074285
3 3 1 1.0 -19.245033054 -3.35027544962 7.44901989542
4 4 1 1.0 -13.3244225572 -15.800326167 -12.1765219424
5 5 1 1.0 -0.352126859399 11.6133259378 -19.2373566906
6 6 1 1.0 -16.947614947 -9.31410825737 -15.3404591248
7 7 1 1.0 18.3423764394 -17.4580090878 10.6651486208
8 8 1 1.0 -13.1825553209 8.43322221319 10.886697669
9 9 1 1.0 12.0112067253 3.4718574601 -0.644830499242
10 10 1 1.0 -12.3493218607 -16.8569284479 7.61356234016
11 11 2 -1.0 0.629840142647 16.5554881105 -15.9734593129
12 12 2 -1.0 6.92445843815 -1.52018332158 15.4864820293
13 13 2 -1.0 8.59900968505 7.27241375895 12.3974711739
14 14 2 -1.0 2.84320346918 -7.57103775213 13.8930492221
15 15 2 -1.0 8.27504905824 10.4845059556 -8.20596317609
16 16 2 -1.0 7.35258158616 -14.0888756316 -9.30954164056
17 17 2 -1.0 14.526420658 -15.2604395212 14.4357105657
18 18 2 -1.0 14.0374326803 15.7334683897 9.79903574295
19 19 2 -1.0 8.77323143346 14.7610276803 -18.3385630339
20 20 2 -1.0 3.71299515142 -17.7501182263 -10.0650919095
21 21 3 -0.834 18.2552650355 -7.04994537786 6.89688929032
22 21 4 0.417 17.2671310169 -7.20263145459 6.88002908763
23 21 4 0.417 18.4398331669 -6.07074992646 6.98123755521
24 22 3 -0.834 17.7380111583 -15.9368095085 -13.6987662126
25 22 4 0.417 16.8344254081 -16.3070876932 -13.9142402818
26 22 4 0.417 18.2496638723 -15.7923547087 5.22195376884
27 23 3 -0.834 -14.2390628922 -4.97552359319 13.2725718049
28 23 4 0.417 -14.8901551929 -5.73338381311 13.3141435854
29 23 4 0.417 -14.7374211548 -4.11145692093 13.201647725
30 24 3 -0.834 -15.2627198973 -0.530269984838 19.7081977229
31 24 4 0.417 -15.2059536562 -1.52853061339 19.724147809
32 24 4 0.417 -15.9191229217 -0.244860472488 19.0098587731
33 25 3 -0.834 -4.71303736391 15.941110451 7.5419750646
34 25 4 0.417 -5.68439593011 16.1753089643 7.50174746227
35 25 4 0.417 -4.51891915952 15.2105743905 6.88727087575
36 26 3 -0.834 -4.07437683564 -8.21028019325 4.07701857561
37 26 4 0.417 -3.16152885952 -8.49075920376 4.37374008354
38 26 4 0.417 -4.73235348998 -8.38964539762 4.80838452362
39 27 3 -0.834 14.1425216262 13.880354825 -1.98041364402
40 27 4 0.417 14.0900421739 14.7270767646 -2.50985626115
41 27 4 0.417 14.3239345743 14.0976575895 -1.02131511158
42 28 3 -0.834 12.4987625743 18.4413472851 -17.0756905766
43 28 4 0.417 13.2001138923 18.4093750495 -16.363591442
44 28 4 0.417 12.4833753768 19.352396405 -17.4877023848
45 29 3 -0.834 2.43951341453 -6.09144505164 19.3327225787
46 29 4 0.417 2.64606916488 -5.31119692498 18.7423418729
47 29 4 0.417 2.66347980973 -5.86133581548 20.2797660958
48 30 3 -0.834 18.817941554 0.132084332203 6.6224264613
49 30 4 0.417 19.3998192241 0.661145033052 7.24009570848
50 30 4 0.417 17.8737507535 0.452807347004 6.6975642505
51 31 3 -0.834 14.8264945131 12.0986749905 4.21994683517
52 31 4 0.417 14.4605285492 11.7134170972 3.37280637799
53 31 4 0.417 15.4160682484 11.424756557 4.66518704628
54 32 3 -0.834 12.3309175755 -1.53241430009 -14.8882111113
55 32 4 0.417 12.2992556923 -2.44093166932 -34.2392468305
56 32 4 0.417 12.8966625528 -1.56314627719 -15.7122191232
57 33 3 -0.834 13.0166223341 3.01082967694 9.14384830293
58 33 4 0.417 13.6044622003 3.50602387624 9.783558389
59 33 4 0.417 13.5662062475 2.67161301291 8.38037478674
60 34 3 -0.834 4.82224893322 -14.8693039583 -14.0769445582
61 34 4 0.417 4.91492375554 -34.04457161 4.89045364402
62 34 4 0.417 4.84139157348 -15.8262402919 -14.3666123945
63 35 3 -0.834 -18.8135598707 1.07440250845 -15.7320302252
64 35 4 0.417 -18.2367711882 0.367934391832 -16.1421756421
65 35 4 0.417 -18.4248371636 1.35387270386 -14.8540819131
66 36 3 -0.834 13.9621552247 2.56870073809 14.4318437615
67 36 4 0.417 14.5051143512 3.39988476968 14.5515498633
68 36 4 0.417 14.0297726816 2.00496677154 15.2550297087
69 37 3 -0.834 -17.8781747601 -2.92050592625 5.84007370408
70 37 4 0.417 -18.7934524701 -2.6643428037 6.15095689741
71 37 4 0.417 -17.5491443599 -3.69745055928 6.37682076422
72 38 3 -0.834 0.727175786203 19.5511101897 -6.14097731279
73 38 4 0.417 0.304346652952 19.8057865571 -7.01066499591
74 38 4 0.417 0.0345515440512 19.5555038343 -5.4196911176
75 39 3 -0.834 13.5619850648 -17.3950771203 -12.7414306849
76 39 4 0.417 14.5560537359 -17.324139644 -12.6589877539
77 39 4 0.417 13.1529151435 -17.4214047763 -11.8293068636
78 40 3 -0.834 2.68195920983 -0.459025703625 -0.517544083368
79 40 4 0.417 2.63928167192 -0.816162533945 -1.45062252012
80 40 4 0.417 2.20184662056 0.417086087049 -0.47370008168
81 41 3 -0.834 8.22236825767 -6.70376697994 15.5043680807
82 41 4 0.417 9.02141255129 -6.5229876157 16.0778209796
83 41 4 0.417 8.50034853415 -7.23275022436 14.702554512
84 42 3 -0.834 3.72442090601 -13.0710371515 -13.8413046109
85 42 4 0.417 3.10389768615 -13.7541888927 -13.456260889
86 42 4 0.417 4.25674343194 -12.6520566469 -13.1057165626
87 43 3 -0.834 16.18571475 -11.6083161657 0.252282917851
88 43 4 0.417 15.3887775944 -11.9545443534 0.747277375562
89 43 4 0.417 15.9966727832 -11.6143616083 -0.729668435441
90 44 3 -0.834 0.0593765710019 11.0711720887 16.8332200345
91 44 4 0.417 -0.403992414424 10.4355958754 17.4507454686
92 44 4 0.417 0.683508137134 11.6502267896 17.3577748417
93 45 3 -0.834 -14.952902087 -5.77506715923 7.73995103903
94 45 4 0.417 -14.2228650091 -6.43366300263 7.5574641895
95 45 4 0.417 -15.6015941471 -6.16854049502 8.39139870685
96 46 3 -0.834 -15.0385572712 -15.1270665388 11.4618737514
97 46 4 0.417 -14.318611544 -15.592609648 10.9471372439
98 46 4 0.417 -14.9378845711 -14.1378446194 11.3555365013
99 47 3 -0.834 6.57644582028 -13.5416921326 7.56943156563
100 47 4 0.417 6.20436148479 -13.3997971221 6.65213952963
101 47 4 0.417 5.86764110893 -13.9262035538 8.16082928668
102 48 3 -0.834 8.31711217718 -18.4041724442 -4.2195687782
103 48 4 0.417 7.92137210855 -17.7279933012 -4.84099882869
104 48 4 0.417 7.66414789146 -19.1479713208 -4.07671643714
105 49 3 -0.834 14.6656842727 -8.616800989 2.20201894192
106 49 4 0.417 14.2794867001 -8.39423694248 1.30685370585
107 49 4 0.417 15.6452287725 -8.41556070868 2.20179708253
108 50 3 -0.834 -7.01967899756 6.58594894577 -15.7534975445
109 50 4 0.417 -6.08924720152 6.53916443359 -15.3900295645
110 50 4 0.417 -7.54897941107 5.80762634208 -15.4157750965
111 51 3 -0.834 7.02222612231 10.3681344513 1.40108702494
112 51 4 0.417 7.70075556663 9.64779631189 1.25714429325
113 51 4 0.417 7.20680280842 10.8315195593 2.26780996057
114 52 3 -0.834 2.96372615924 7.31855204527 6.86689246547
115 52 4 0.417 2.98814626234 7.13660468531 5.88388658788
116 52 4 0.417 3.35218176733 6.53995486497 7.35973077895
117 53 3 -0.834 -9.42375108628 11.6460813298 10.0414433923
118 53 4 0.417 -10.3168942273 11.9463987789 9.70662090227
119 53 4 0.417 -8.70831748656 11.9791738759 9.42727253776
120 54 3 -0.834 -19.465211903 -16.9999613167 -15.7699087631
121 54 4 0.417 -20.2261953761 -16.8296492469 -16.3959287099
122 54 4 0.417 -18.5999436559 -16.8800645169 -16.2566712804
123 55 3 -0.834 -9.36733886849 -12.3851000497 11.4257987655
124 55 4 0.417 -9.999979659 -12.2358661021 10.665867414
125 55 4 0.417 -9.2969055575 -11.5490740146 11.9699501389
126 56 3 -0.834 8.16840877404 -3.67391187756 5.44959787339
127 56 4 0.417 7.45522652656 -3.17229335831 5.93924212539
128 56 4 0.417 8.39264468885 -3.19248249119 24.3699627357
129 57 3 -0.834 -7.8996420458 -6.39819452418 1.84597046489
130 57 4 0.417 -7.97107486698 -5.45591560828 1.51884766423
131 57 4 0.417 -8.77796621085 -6.68598212041 2.22771448901
132 58 3 -0.834 6.75069680235 -4.90409099484 11.6614624744
133 58 4 0.417 7.53938014389 -4.59612668559 11.1293524806
134 58 4 0.417 6.922871551 -4.7470643944 12.6339336994
135 59 3 -0.834 -5.99255905312 -3.89676619741 -11.0820148216
136 59 4 0.417 -5.03213256503 -3.6202855517 -11.1157864623
137 59 4 0.417 -6.2599832928 -4.28127778051 -11.9655522146
138 60 3 -0.834 8.00726840938 0.0546118949429 -14.9150311177
139 60 4 0.417 7.82336812042 0.907645020144 -34.1943331426
140 60 4 0.417 8.65189829298 0.228998369475 -15.659372848
141 61 3 -0.834 -3.93449615711 -12.9747317622 9.89695678491
142 61 4 0.417 -4.01011232078 -12.6656150923 8.94894151137
143 61 4 0.417 -4.62342452131 -13.6775217991 10.0743404702
144 62 3 -0.834 -7.11862805643 -2.14817940963 12.9576253845
145 62 4 0.417 -6.42662281361 -1.91126893221 12.2757119322
146 62 4 0.417 -6.75153471354 -2.84108652291 13.5782096936
147 63 3 -0.834 8.00465717402 16.6257889748 13.5863737672
148 63 4 0.417 8.95080953463 16.3445195431 13.7466520658
149 63 4 0.417 7.98638690358 17.3669390611 12.9152812089
150 64 3 -0.834 6.94973782791 -17.5818843834 -6.76187088947
151 64 4 0.417 6.70998145596 -18.5376109061 -6.59126565195
152 64 4 0.417 7.42066159013 -17.5081944304 -7.64096278293
153 65 3 -0.834 -14.8880315527 -9.47546360269 19.4390408467
154 65 4 0.417 -15.3458239343 -10.3513909752 19.5912857666
155 65 4 0.417 -14.2553834271 -9.29469586833 20.1920883142
156 66 3 -0.834 -10.0489592883 13.3653635123 -1.43280267283
157 66 4 0.417 -9.10751238961 13.0566620252 -1.56839702191
158 66 4 0.417 -10.5481318036 13.3023482556 -2.29701426918
159 67 3 -0.834 -3.75329792616 -7.75989052249 6.47352221194
160 67 4 0.417 -3.95011042695 -8.42078086841 7.19773966919
161 67 4 0.417 -4.18207650148 -8.06116778982 5.62182714244
162 68 3 -0.834 17.1498912409 16.4549545116 4.77542881248
163 68 4 0.417 16.1848658772 16.4484927951 5.03751038596
164 68 4 0.417 17.6266269268 17.1769624529 5.27685570172
165 69 3 -0.834 4.46341637526 -10.8174111767 5.21671845395
166 69 4 0.417 3.62267416126 -10.6610533015 4.69834753751
167 69 4 0.417 4.28554661332 -10.6766547953 6.19065685771
168 70 3 -0.834 5.18179161013 10.7653562563 -6.30513977166
169 70 4 0.417 5.70470895846 10.6070194959 -7.14268885836
170 70 4 0.417 5.60985717516 11.5000218035 -5.77880513884
171 71 3 -0.834 0.341135363733 7.94723037887 7.02817339824
172 71 4 0.417 0.0868038256342 8.71628188618 6.44176375291
173 71 4 0.417 0.946563497587 7.33046358257 6.52512571241
174 72 3 -0.834 11.8013257616 -18.414239996 3.74022018118
175 72 4 0.417 11.7654450319 -17.9962723465 4.64797453727
176 72 4 0.417 11.6760296766 -19.4028764349 3.8232935885
177 73 3 -0.834 8.32719290336 -17.3312568192 -11.2757327854
178 73 4 0.417 8.12990588949 -17.8644706936 -10.453076106
179 73 4 0.417 7.65374229875 -17.5475724278 -11.9826095511
180 74 3 -0.834 16.313529836 -13.5363977544 -16.1084211314
181 74 4 0.417 17.2771904735 -13.8035194924 -16.1106750409
182 74 4 0.417 16.2372057942 -12.5621563222 -16.3206227985
183 75 3 -0.834 18.4234763597 -18.4026831974 15.8395324138
184 75 4 0.417 18.9982745148 -17.6062256477 15.6517461013
185 75 4 0.417 19.0014431126 -19.2096568578 15.9609824974
186 76 3 -0.834 8.62033248509 -1.26006422581 18.710022309
187 76 4 0.417 8.2852620205 -0.526739538923 19.3016017453
188 76 4 0.417 8.38592111664 -1.05508876137 17.7597381274
189 77 3 -0.834 12.1167466402 5.96007814177 2.64115079667
190 77 4 0.417 12.9690953159 5.67871635243 3.08198979242
191 77 4 0.417 11.4182656444 5.25980606428 2.78861230951
192 78 3 -0.834 -14.2476281981 -16.945336696 9.15611460496
193 78 4 0.417 -14.8564143458 -17.7268622755 9.0197354734
194 78 4 0.417 -13.6193696397 -17.1397034509 9.90945100307
195 79 3 -0.834 18.5538419173 3.32492741024 0.0843496960416
196 79 4 0.417 19.1696656411 2.99441151236 0.799557803068
197 79 4 0.417 18.296833174 2.56435455594 -0.511870164068
198 80 3 -0.834 5.81985948804 6.50270880769 -14.6051200242
199 80 4 0.417 6.1762886197 6.45192494097 -13.6721764645
200 80 4 0.417 5.37689248807 7.38827778354 -14.7449481858
201 81 3 -0.834 11.6400425345 -13.5037403053 -13.2310018378
202 81 4 0.417 10.780569413 -13.3036549328 -13.7013981569
203 81 4 0.417 11.6753389877 -14.4761844009 -13.0005476803
204 82 3 -0.834 -8.57434498756 -19.1602896025 14.5701651484
205 82 4 0.417 -8.3509324836 -19.9831918891 14.0477466684
206 82 4 0.417 -8.12864483396 -18.3687734808 14.152006807
207 83 3 -0.834 -8.49487136124 -10.2994414952 19.3820685707
208 83 4 0.417 -9.41774359472 -10.3451940769 19.7644491559
209 83 4 0.417 -8.37705615409 -11.0282255967 18.7075356234
210 84 3 -0.834 -18.1989530626 13.737687348 -8.00685028037
211 84 4 0.417 -18.3670152359 14.6908865661 -8.25819012229
212 84 4 0.417 -17.6916537383 13.7045177335 -7.14571798778
213 85 3 -0.834 7.91047993432 1.46017724224 -8.67905698637
214 85 4 0.417 7.89579191571 2.45049159069 -8.54098475579
215 85 4 0.417 7.49893597452 1.0072354806 -7.88818612254
216 86 3 -0.834 4.98339814065 -17.2638796726 13.3820490045
217 86 4 0.417 4.88224656495 -17.7304612812 12.5033724571
218 86 4 0.417 -14.2377518384 -16.435583607 13.2586371747
219 87 3 -0.834 12.2775653744 5.79078389245 3.30049321329
220 87 4 0.417 13.1722176789 6.20975835245 3.14538280645
221 87 4 0.417 11.6027693324 6.21174344269 2.69432114047
222 88 3 -0.834 -11.7808589755 -16.7947743178 -17.7446852656
223 88 4 0.417 -12.6766284982 -16.5557693165 -17.3698856015
224 88 4 0.417 -11.8719400852 -17.589338877 -18.3449953778
225 89 3 -0.834 3.06798896405 -8.66150015048 -5.53876717945
226 89 4 0.417 2.82561792281 -9.22922025669 -4.7520324233
227 89 4 0.417 2.83144715168 -7.70882058169 -5.34783604191
228 90 3 -0.834 -6.07160696765 10.9071384302 -1.05230619189
229 90 4 0.417 -6.92285123208 11.1424275348 -1.52137588991
230 90 4 0.417 -5.32976445537 11.4802136347 -1.4005286151
231 91 3 -0.834 8.16761828759 -0.0658330201465 8.12020430114
232 91 4 0.417 8.86821918145 -0.770203264255 8.2343191786
233 91 4 0.417 7.28425759293 -0.499903538813 7.94340230003
234 92 3 -0.834 -1.71796558339 2.0580644568 7.35623658532
235 92 4 0.417 -1.93982712872 3.03262482261 7.3243814708
236 92 4 0.417 -2.56281329399 1.5253360619 7.40560855057
237 93 3 -0.834 7.48527522575 4.81265047506 12.9928482739
238 93 4 0.417 7.95992792646 3.93248992113 12.99782442
239 93 4 0.417 7.38100989593 5.12978703035 12.0502155554
240 94 3 -0.834 -1.36448866417 2.56237544532 5.33215680616
241 94 4 0.417 -1.87311255427 2.13034207842 6.07690874947
242 94 4 0.417 -0.38432688569 2.42317727943 5.47325778399
243 95 3 -0.834 -14.0274613309 -8.91134409327 -18.9633686496
244 95 4 0.417 -14.439637272 -9.11810589734 -19.8507031063
245 95 4 0.417 -13.0316287139 -8.96357950235 -19.0381379277
246 96 3 -0.834 -3.81813683332 -13.350576008 -18.7550221203
247 96 4 0.417 -3.48894901563 -14.2947914065 -18.7647081736
248 96 4 0.417 -3.37792278157 -12.851754572 -18.0084366345
249 97 3 -0.834 11.0534378453 -17.0160175587 -2.49207313673
250 97 4 0.417 11.585109455 -17.0396571453 -1.64545173951
251 97 4 0.417 10.8089353517 -17.9484144316 -2.75826005778
252 98 3 -0.834 -0.28524942473 10.8529314137 15.666142324
253 98 4 0.417 -0.96624690813 11.1463101876 16.3370910811
254 98 4 0.417 -0.011971659137 9.91049103936 15.8588249061
255 99 3 -0.834 7.83841112551 -4.47316425058 14.6757176329
256 99 4 0.417 6.9813277134 -4.73929543042 14.2346013977
257 99 4 0.417 7.69799875378 -3.63072802515 15.1958972376
258 100 3 -0.834 7.25114187439 0.481763023341 11.7698219302
259 100 4 0.417 7.09946417009 0.00546886483625 12.635927772
260 100 4 0.417 8.11666064255 0.980939973394 11.811066395
261 101 3 -0.834 -4.2800797098 12.6628950953 -13.4206001406
262 101 4 0.417 -4.96258881594 12.1123027655 -13.9012580467
263 101 4 0.417 -4.74163992665 13.3376426261 -12.8446817592
264 102 3 -0.834 -4.49979325869 16.8161028797 -5.62815250147
265 102 4 0.417 -4.79308285474 16.0559708534 -6.20796695129
266 102 4 0.417 -3.5260962554 16.7209759722 -5.42111046788
267 103 3 -0.834 1.83965213176 -13.7582163149 17.1943374082
268 103 4 0.417 2.19024028252 -12.8216857525 17.1944428722
269 103 4 0.417 2.57016897922 -14.3876140027 17.4593075869
270 104 3 -0.834 -4.53561503115 -12.3744892206 5.31141080825
271 104 4 0.417 -4.09859554751 -12.2932963277 24.183313689
272 104 4 0.417 -5.11942442766 -13.1862653192 5.32510458865
273 105 3 -0.834 -8.66876949711 1.61598508307 16.6176681009
274 105 4 0.417 -7.74609079881 1.2331366936 16.5718803568
275 105 4 0.417 -8.62381601987 2.60850729436 16.5041736238
276 106 3 -0.834 14.4339847805 14.5483786222 12.8631360117
277 106 4 0.417 14.7192757106 13.5991476168 12.9956895568
278 106 4 0.417 13.479399452 14.5711348567 12.5660655082
279 107 3 -0.834 18.6793887865 -16.6764784323 -0.820292600187
280 107 4 0.417 17.9583936066 -16.0774221707 -1.16857208947
281 107 4 0.417 18.9146783713 -17.3545295272 -1.51663074005
282 108 3 -0.834 2.2736947395 10.7992343473 3.62064193176
283 108 4 0.417 2.09275914025 11.7591195207 3.40643160778
284 108 4 0.417 2.35642665294 10.6886115069 4.61105647542
285 109 3 -0.834 4.10556946484 -6.43770860189 -2.97328001071
286 109 4 0.417 3.44929180557 -6.83306598588 -2.33063339403
287 109 4 0.417 3.83516557534 -6.66606046404 -3.90855610668
288 110 3 -0.834 -16.118382597 -8.68042449391 6.17120456841
289 110 4 0.417 -16.1211303806 -9.19952978918 5.31649640747
290 110 4 0.417 -17.0520107348 -8.39956250161 6.39359572744
291 111 3 -0.834 -0.415147972207 -4.69628547272 -6.20662120807
292 111 4 0.417 0.0931327613886 -4.49868206597 -7.044838142
293 111 4 0.417 0.172493332812 -4.53299166982 -5.4141469415
294 112 3 -0.834 6.27564258227 -16.9312768127 -1.85319500705
295 112 4 0.417 6.16743292306 -17.7161652298 -1.24307780284
296 112 4 0.417 6.57364183264 -16.1366018334 -1.32433622197
297 113 3 -0.834 0.119011540302 -11.2038699782 5.92825742028
298 113 4 0.417 0.5801043081 -11.6964313087 24.9578499395
299 113 4 0.417 -0.167054002 -11.8522221847 6.63381206551
300 114 3 -0.834 -14.6866942993 5.0939738242 6.52581522598
301 114 4 0.417 -33.8597797081 4.62480316128 7.17875839704
302 114 4 0.417 -15.6382559347 4.84035953857 6.69963934266
303 115 3 -0.834 2.23378958895 -2.28476742124 -18.7730646824
304 115 4 0.417 1.69529028957 -2.54907170313 -17.972962776
305 115 4 0.417 3.20662318431 -2.30864827962 -18.5427867566
306 116 3 -0.834 -6.79365990492 -13.4474684725 18.5258718239
307 116 4 0.417 -5.85306224075 -13.6493601352 18.2528935973
308 116 4 0.417 -6.89939380653 -12.461256438 18.6531793541
309 117 3 -0.834 -3.75010583224 -0.0842318986541 4.28251574056
310 117 4 0.417 -2.79437544905 -0.147212588249 3.99508935926
311 117 4 0.417 -4.12450903808 0.800048232322 4.00346030921
312 118 3 -0.834 9.39573724736 16.9502835337 -16.6143906321
313 118 4 0.417 9.94699311274 17.7538957847 -16.3900531455
314 118 4 0.417 9.16922103402 16.9627850017 -17.5883207458
315 119 3 -0.834 -2.10672091924 1.59377399848 7.95144317373
316 119 4 0.417 -2.85888194145 1.1943811555 8.47560094095
317 119 4 0.417 -2.24920609197 2.57954154395 7.86220470802
318 120 3 -0.834 -10.8545658093 14.5709878543 -8.27966187471
319 120 4 0.417 -11.4330265373 13.7921961213 -8.03703455191
320 120 4 0.417 -10.9029231272 15.2601397284 -7.55665941008
321 121 3 -0.834 -2.61521561616 1.8183427475 7.77004766433
322 121 4 0.417 -3.4640992222 2.24500265898 8.08207499551
323 121 4 0.417 -2.20905036449 1.29659446414 8.52025792559
324 122 3 -0.834 6.13509429204 -1.66358159955 10.6619805363
325 122 4 0.417 24.9901553908 -1.37674738877 10.3706940506
326 122 4 0.417 6.53100274108 -0.963033725862 11.2556895074
327 123 3 -0.834 -13.0123104325 7.63375266766 -7.28313614121
328 123 4 0.417 -12.4608779671 8.43256759077 -7.52359197551
329 123 4 0.417 -13.6458924495 7.42925771616 -8.02929869506
330 124 3 -0.834 15.4637985797 -9.61223174133 13.061468891
331 124 4 0.417 14.6435309315 -9.04124940026 13.0952915403
332 124 4 0.417 15.4852708832 -10.1139097757 12.1966793454
333 125 3 -0.834 -7.60237866462 -19.5880187945 -4.34589652444
334 125 4 0.417 -8.5264566432 -19.9702178507 -4.34858826652
335 125 4 0.417 -7.19063970194 -19.7177835997 -3.44387899558
336 126 3 -0.834 -17.7090815603 -7.15167010354 -11.6698428813
337 126 4 0.417 -17.4510081871 -6.66406027234 -10.8357944855
338 126 4 0.417 -18.7034562584 -7.13116178812 -11.7737813286
339 127 3 -0.834 -5.99597079072 -9.10107122088 -7.64173477106
340 127 4 0.417 -6.91204978543 -8.71912827496 -7.51957884414
341 127 4 0.417 -5.44538628233 -8.91333106589 -6.82833905669
342 128 3 -0.834 -7.61948039188 -5.96899463635 9.4587308275
343 128 4 0.417 -6.93621784035 -5.66881395178 10.1243485613
344 128 4 0.417 -7.55860916034 -5.39978973065 8.63879015905
345 129 3 -0.834 -5.23821352321 6.74674840396 -9.34456997003
346 129 4 0.417 -6.03474902631 7.25842412187 -9.66662626277
347 129 4 0.417 -4.79528906765 7.25130665341 -8.60346262365
348 130 3 -0.834 13.9338746662 -18.7909162334 12.7024946564
349 130 4 0.417 13.8922486301 -18.4441450766 13.639521
350 130 4 0.417 13.302049099 -19.5596412197 12.6031998331
351 131 3 -0.834 7.21026995594 2.32855967149 6.93265179822
352 131 4 0.417 6.21625599041 2.31746571595 7.04134678163
353 131 4 0.417 7.62471156965 1.70148751536 7.59221205339
354 132 3 -0.834 17.4695855578 14.7484651499 -4.16028976927
355 132 4 0.417 17.1680375748 13.9005180372 -3.72433054003
356 132 4 0.417 17.9234920909 15.3280805853 -3.48351961417
357 133 3 -0.834 -5.33945898168 -4.70015860361 10.6717058813
358 133 4 0.417 -4.83559665906 -3.89484506143 10.359305396
359 133 4 0.417 -5.28700994686 -4.76017599587 11.6685257266
360 134 3 -0.834 -9.01182892782 6.04474526256 -12.9269623225
361 134 4 0.417 -8.30215498955 6.4790568515 -12.3722183365
362 134 4 0.417 -9.35184068212 5.23092932944 -12.4556874689
363 135 3 -0.834 -13.2453794791 -2.40724557609 -9.2588505409
364 135 4 0.417 -12.3797074737 -1.90936267894 -9.20663942461
365 135 4 0.417 -13.6741931157 -2.42584048329 -8.35564799119
366 136 3 -0.834 16.8628524032 17.1537142486 9.36023402491
367 136 4 0.417 16.2999928061 17.9078022172 9.69867389294
368 136 4 0.417 17.7752532455 17.2108331007 9.76552838927
369 137 3 -0.834 -3.88002024393 -19.2629925742 -1.59298613322
370 137 4 0.417 -4.63773556305 -18.8697107574 -2.11375674345
371 137 4 0.417 -3.32653190268 -18.5272661067 -1.20265476106
372 138 3 -0.834 -2.20849173493 -19.6334806759 -18.2974461903
373 138 4 0.417 -2.99698915019 -19.1183621034 -18.6334906407
374 138 4 0.417 -2.1599636459 -19.5565969948 -17.3015869872
375 139 3 -0.834 -6.227253718 -9.50486976161 16.2173324695
376 139 4 0.417 -5.27507350111 -9.58418221833 16.5124008089
377 139 4 0.417 -6.8100842687 -10.0467829369 16.8228413952
378 140 3 -0.834 6.99542769208 -5.24345333446 -15.653375549
379 140 4 0.417 7.67107360715 -4.97303244179 -16.3392174924
380 140 4 0.417 6.92895690804 -6.24087109221 -15.6261416497
381 141 3 -0.834 -1.58418229342 -2.68081484906 -15.6940857693
382 141 4 0.417 -1.26319861975 -3.04434707931 -14.8195483203
383 141 4 0.417 -1.86005338895 -1.72673237135 -15.5773648765
384 142 3 -0.834 -1.46341127439 17.1370506705 0.208382962749
385 142 4 0.417 -2.24585240771 17.4573307897 0.742431126023
386 142 4 0.417 -0.856730740998 17.9071683535 0.0112567634637
387 143 3 -0.834 9.65976832607 -12.2502312848 -11.4121499226
388 143 4 0.417 10.4133066164 -11.852602751 -11.9356697117
389 143 4 0.417 8.83655679072 -12.2751932374 -11.9793386329
390 144 3 -0.834 1.93679563731 7.83845848962 13.5271478036
391 144 4 0.417 2.08906404373 8.58852476842 12.8835516361
392 144 4 0.417 2.29301028635 8.09317168391 14.4261664121
393 145 3 -0.834 13.2161480931 -8.09760106777 -16.0083220408
394 145 4 0.417 13.3363511485 -9.06471454733 -16.2324742186
395 145 4 0.417 14.1119983127 -7.66233279937 -15.9189051081
396 146 3 -0.834 -0.357182047472 15.2175924916 -3.60907985756
397 146 4 0.417 0.340188586835 15.9273220114 -3.70887588116
398 146 4 0.417 -0.977029956057 15.2467477301 -4.39326084447
399 147 3 -0.834 -10.2433859959 -4.40357217673 -4.78323833549
400 147 4 0.417 -10.1705581065 -5.39797113049 -4.70663608803
401 147 4 0.417 -10.0963815516 -4.13085921493 -5.73403815641
402 148 3 -0.834 18.3939740203 -0.453221722764 -4.40655563017
403 148 4 0.417 18.5962399597 -0.358434542948 -3.43181937479
404 148 4 0.417 17.8301788318 -1.2661475604 -4.55246212694
405 149 3 -0.834 10.4530589481 19.0424459966 12.1394048659
406 149 4 0.417 10.4952591139 18.7199213404 11.1937844738
407 149 4 0.417 10.9244271634 19.9212929455 12.2131715271
408 150 3 -0.834 9.93742008972 -10.6234020987 -1.39654433406
409 150 4 0.417 10.2965933706 -10.202797576 -2.22966666282
410 150 4 0.417 9.12837505341 -11.1671149581 -1.61975752776
411 151 3 -0.834 -14.4046094484 -9.79296625291 13.414035608
412 151 4 0.417 -14.5030163953 -10.3535298725 12.5917883718
413 151 4 0.417 4.46280977491 -9.47241265038 13.7086101616
414 152 3 -0.834 -5.50081316426 13.5715592143 13.2969801793
415 152 4 0.417 -4.91325502242 12.8218568588 13.6014882777
416 152 4 0.417 -5.62926947756 13.51336322 12.3069724357
417 153 3 -0.834 16.8709894531 12.5240858359 17.8025930949
418 153 4 0.417 17.3772223478 13.1864305904 17.2502943998
419 153 4 0.417 15.9175489822 12.8152174548 17.8813124897
420 154 3 -0.834 -15.9738961846 -2.28780901601 -4.87880314094
421 154 4 0.417 -15.0667368458 -2.6012989875 -4.59811206775
422 154 4 0.417 -16.1197190151 -1.35400671607 -4.55207689932
423 155 3 -0.834 -3.94892990686 -6.38194209678 -8.05067984707
424 155 4 0.417 -4.00706868085 -5.44526651991 -7.70533837494
425 155 4 0.417 -4.86775896333 -6.77149859197 -8.11393277431
426 156 3 -0.834 6.12371112951 13.9504388962 -7.02836314719
427 156 4 0.417 7.04444635894 14.339983596 -7.05078516792
428 156 4 0.417 6.17618340121 12.9855889365 -6.77085168526
429 157 3 -0.834 -11.287397682 -12.562073682 -8.96823121984
430 157 4 0.417 -10.5747940559 -12.5615313416 -8.26666374782
431 157 4 0.417 -10.9558071962 -13.0431808767 -9.77976367877
432 158 3 -0.834 -18.8140191301 10.3900469366 10.4068279029
433 158 4 0.417 -18.3667467723 11.2599177169 10.1988021472
434 158 4 0.417 -19.4279303547 10.1432239127 9.65703287966
435 159 3 -0.834 -4.23425961202 -4.99698753937 -2.7408467638
436 159 4 0.417 -3.71301336481 -4.91459593302 -1.89142642343
437 159 4 0.417 -5.11978013976 -4.54491018247 -2.63369886033
438 160 3 -0.834 -3.43076504665 -17.1885879168 16.6960812943
439 160 4 0.417 -4.19106537872 -17.8321708911 16.7840912973
440 160 4 0.417 -2.58044702416 -17.6948627964 16.5523936373
441 161 3 -0.834 18.2906082404 10.8476974363 -13.5508763936
442 161 4 0.417 18.4108985843 10.9032635234 5.22562076265
443 161 4 0.417 17.3575252997 11.1172276828 -13.3127302895
444 162 3 -0.834 -15.2809437956 5.80590082649 4.66170055104
445 162 4 0.417 -15.0972761836 4.83122401658 4.78926497094
446 162 4 0.417 -15.3993427992 5.99806109868 3.68750456544
447 163 3 -0.834 4.80297766339 -8.0311376793 -16.2530918059
448 163 4 0.417 3.93531751826 -8.29738507264 -16.6729512026
449 163 4 0.417 5.54292263114 -8.58213273119 -16.6389574676
450 164 3 -0.834 -16.230107679 -5.53353303936 -4.33396139575
451 164 4 0.417 -17.1234593495 -5.11213039768 -4.1779359788
452 164 4 0.417 -15.5918209547 -5.23390364696 -3.62486811775
453 165 3 -0.834 9.49616106128 17.7302995366 4.55598334538
454 165 4 0.417 8.49643222827 17.7378017209 4.5339124435
455 165 4 0.417 9.80785990088 17.2501453739 5.37592038565
456 166 3 -0.834 12.1719425361 2.72882509616 19.6848891546
457 166 4 0.417 11.8905791397 3.36592018937 20.4024865795
458 166 4 0.417 12.5792345481 1.91614137236 20.1016147166
459 167 3 -0.834 -2.02148108826 -7.12789380756 13.7068719489
460 167 4 0.417 -2.92148613202 -6.94981833795 13.3090259526
461 167 4 0.417 -2.03642291616 -6.9000422788 14.6804537641
462 168 3 -0.834 -14.6172527191 -12.4064958691 18.8671211895
463 168 4 0.417 -15.3918038358 -12.8696398997 19.2978995099
464 168 4 0.417 -13.8398183857 -12.4019883096 19.4960708247
465 169 3 -0.834 -6.03872557296 1.97935285204 2.56285318217
466 169 4 0.417 -6.32924467879 1.86355082485 1.61301542551
467 169 4 0.417 -6.44791944247 1.26174284092 3.12641303665
468 170 3 -0.834 2.08728939168 8.47300440204 15.1340189853
469 170 4 0.417 1.29299957637 8.33722018462 14.5418471452
470 170 4 0.417 1.86313181339 8.18230713859 16.0642071518
471 171 3 -0.834 -8.37830324248 -2.32266692168 16.1817025918
472 171 4 0.417 -8.98488194281 -1.5477943027 16.359568667
473 171 4 0.417 -8.92456236237 -3.12596071944 15.9443807916
474 172 3 -0.834 -0.760998228361 19.5070958414 -3.70342195527
475 172 4 0.417 0.0556264424241 18.9371890708 -3.61214118018
476 172 4 0.417 -1.57210189658 18.9648229905 -3.4842108521
477 173 3 -0.834 -16.4479901754 19.3372238609 -2.64240927329
478 173 4 0.417 -16.1244614199 18.83696646 -1.83924415866
479 173 4 0.417 -16.2139512887 20.3049486135 -2.54892636025
480 174 3 -0.834 -9.1456501478 12.8738754304 -0.771497786909
481 174 4 0.417 -9.87501712416 12.4666424462 -1.32121613652
482 174 4 0.417 -9.54534218862 13.354896854 0.00880218981261
483 175 3 -0.834 10.0327994713 -11.0834561487 3.81158933212
484 175 4 0.417 10.9265820554 -11.502478631 3.65167041127
485 175 4 0.417 10.1437489294 -10.0967875144 3.93065716264
486 176 3 -0.834 -15.0921329206 -6.65765773631 10.47721699
487 176 4 0.417 -14.8160577247 -6.4749274086 11.4208246798
488 176 4 0.417 -15.4904791552 -5.83070489707 10.0803910239
489 177 3 -0.834 -5.65579279584 -2.0514214054 15.1766914989
490 177 4 0.417 -5.34035619765 -3.00035201701 15.1710922302
491 177 4 0.417 -6.14406805942 -1.85745824519 14.3258289562
492 178 3 -0.834 -11.6936225629 -10.4698619165 0.888564309858
493 178 4 0.417 -11.1910516807 -9.98505120405 1.60437351179
494 178 4 0.417 -12.1749844467 -11.2495801415 1.28898161138
495 179 3 -0.834 5.18035027496 8.81314481268 14.5483325106
496 179 4 0.417 4.39970710468 9.42182192616 14.6901566104
497 179 4 0.417 4.86525429318 7.86415622661 14.5366153162
498 180 3 -0.834 -3.38890035316 8.33237983651 17.1380800115
499 180 4 0.417 -4.2812007001 8.38717378153 16.6899730014
500 180 4 0.417 -2.80649366789 9.07757943855 16.8132972039
501 181 3 -0.834 -9.70212636548 1.5546348001 8.11455536568
502 181 4 0.417 -9.50407667185 1.68548268874 7.14313558504
503 181 4 0.417 -10.6731444671 1.34626854064 8.23164052925
504 182 3 -0.834 -2.18791672554 15.8562257719 -9.47931655174