LAMMPS data file via write_data, version 23 Oct 2017, timestep = 10000 

8 atoms
4 atom types
4 bonds
1 bond types
2 angles
1 angle types

5.2323165922511308e+00 4.4767683407743228e+01 xlo xhi
5.2323165922511308e+00 4.4767683407743228e+01 ylo yhi
5.2323165922511308e+00 4.4767683407743228e+01 zlo zhi

Masses

1 22.99
2 35.45
3 15.9994
4 1.008

Atoms # full

1 1 1 1.0000000000000000e+00 6.5851280868252591e+00 8.4332222131895165e+00 1.0886697669007791e+01 1 0 0 
2 2 2 -1.0000000000000000e+00 2.6630680602394957e+01 1.1558134146340988e+01 7.1007092912198830e+00 0 0 -1 
3 3 3 -8.3399999999999996e-01 9.6597683260654552e+00 7.5174521229183604e+00 8.3555334851125664e+00 0 -1 1 
4 3 4 4.1699999999999998e-01 1.0413306616446988e+01 7.9150806567866976e+00 7.8320136960454700e+00 0 -1 1 
5 3 4 4.1699999999999998e-01 8.8365567907170330e+00 7.4924901703140137e+00 7.7883447748293015e+00 0 -1 1 
6 4 3 -8.3399999999999996e-01 9.2538577548174032e+00 7.3469581119683003e+00 1.1114926580819226e+01 -1 -1 0 
7 4 4 4.1699999999999998e-01 9.5128528974104185e+00 7.5513150972016572e+00 1.0170911865103989e+01 -1 -1 0 
8 4 4 4.1699999999999998e-01 9.7964845291001161e+00 6.5767746130248943e+00 1.1450151498628436e+01 -1 -1 0 

Bonds

1 1 3 4
2 1 3 5
3 1 6 7
4 1 6 8

Angles

1 1 4 3 5
2 1 7 6 8

Dihedrals


