ITEM: TIMESTEP
580000
ITEM: NUMBER OF ATOMS
3486
ITEM: BOX BOUNDS pp pp pp
7.3270525616029744e+01 1.0672947438397057e+02
7.3270525616029744e+01 1.0672947438397057e+02
7.3270525616029744e+01 1.0672947438397057e+02
ITEM: ATOMS id type x y z ix iy iz
1 6 90.6215 93.7494 74.0368 4 1 0
2 7 90.337 93.4037 74.87 4 1 0
3 7 89.92 94.3952 73.8973 4 1 0
4 6 75.2509 82.8487 89.9717 0 3 -1
5 7 74.4673 83.1387 89.4737 0 3 -1
6 7 75.2709 81.899 89.8117 0 3 -1
7 6 99.2308 76.7804 99.5711 0 0 -6
8 7 99.905 77.4375 99.8117 0 0 -6
9 7 99.684 76.4118 98.8112 0 0 -6
10 6 83.8805 73.2848 76.0682 6 9 -1
11 7 83.8521 105.916 76.5429 6 8 -1
12 7 84.5061 73.7835 76.5878 6 9 -1
13 6 78.1563 105.48 86.8181 -2 -2 0
14 7 79.042 105.087 86.8363 -2 -2 0
15 7 77.6025 104.765 86.4671 -2 -2 0
16 6 95.2349 89.1176 105.579 -1 -1 -5
17 7 95.2144 90.0394 105.915 -1 -1 -5
18 7 95.6654 88.6489 106.323 -1 -1 -5
19 6 83.4811 85.4889 90.2412 -6 3 7
20 7 82.637 85.449 90.6655 -6 3 7
21 7 84.0057 84.8511 90.7434 -6 3 7
22 6 95.0329 100.36 104.666 -2 -2 0
23 7 94.2136 99.8482 104.647 -2 -2 0
24 7 94.911 101.067 104.018 -2 -2 0
25 6 101.653 81.8087 103.987 2 -2 -2
26 7 102.02 82.6936 104.071 2 -2 -2
27 7 100.832 81.9162 103.5 2 -2 -2
28 6 92.6428 92.3034 76.0069 4 -4 -4
29 7 92.8167 92.9675 75.3285 4 -4 -4
30 7 93.5737 92.0635 76.1537 4 -4 -4
31 6 102.168 96.0951 77.8674 5 -4 1
32 7 102.699 96.1891 77.0685 5 -4 1
33 7 101.39 95.5623 77.6792 5 -4 1
34 6 81.1912 100.871 82.1362 5 -6 4
35 7 80.3427 101.008 82.5972 5 -6 4
36 7 80.8232 100.648 81.2756 5 -6 4
37 6 85.4981 79.3457 84.5759 2 8 1
38 7 86.1049 79.3031 83.8127 2 8 1
39 7 85.9677 79.9308 85.1956 2 8 1
40 6 80.156 74.7786 95.9522 -6 5 -2
41 7 80.2528 75.5637 96.5319 -6 5 -2
42 7 80.9536 74.2344 96.0331 -6 5 -2
43 6 73.8544 80.1902 92.6687 -7 -3 -3
44 7 74.2526 79.8203 91.8659 -7 -3 -3
45 7 73.2973 79.4662 92.9671 -7 -3 -3
46 6 102.694 87.5711 96.734 -3 2 -2
47 7 102.657 86.6339 97.0362 -3 2 -2
48 7 102.605 87.5165 95.7759 -3 2 -2
49 6 76.8181 100.31 80.7491 2 4 8
50 7 77.1934 100.993 80.1761 2 4 8
51 7 77.5452 100.117 81.34 2 4 8
52 6 87.4987 78.8188 77.5688 3 -5 -4
53 7 86.5806 78.9005 77.8288 3 -5 -4
54 7 87.3778 78.2551 76.7763 3 -5 -4
55 6 78.6424 87.7568 93.9137 -3 -1 -2
56 7 79.2593 88.2698 93.3952 -3 -1 -2
57 7 78.0329 88.3846 94.3047 -3 -1 -2
58 6 95.2031 85.2759 84.3411 2 -2 -1
59 7 95.5588 84.4036 84.191 2 -2 -1
60 7 96.0475 85.7353 84.3066 2 -2 -1
61 6 102.867 100.288 77.3786 -1 -1 -3
62 7 102.604 101.227 77.3917 -1 -1 -3
63 7 102.851 100.037 78.298 -1 -1 -3
64 6 104.819 93.0257 104.955 0 3 -1
65 7 105.012 92.3444 105.619 0 3 -1
66 7 104.883 92.5038 104.144 0 3 -1
67 6 104.513 94.8567 88.8252 -5 -2 3
68 7 104.669 93.9773 89.23 -5 -2 3
69 7 103.812 95.2284 89.3628 -5 -2 3
70 6 99.5405 83.9332 99.3979 -3 3 -11
71 7 99.5331 82.9658 99.3501 -3 3 -11
72 7 98.6116 84.0835 99.6082 -3 3 -11
73 6 101.916 91.5952 89.568 -7 -1 0
74 7 102.702 91.9276 89.1238 -7 -1 0
75 7 101.966 91.996 90.4422 -7 -1 0
76 6 90.471 95.1825 80.6738 -8 -4 -7
77 7 90.9251 96.0259 80.691 -8 -4 -7
78 7 89.5446 95.4671 80.6824 -8 -4 -7
79 6 82.9926 99.1269 83.484 -2 -5 -3
80 7 82.3705 99.5366 82.8541 -2 -5 -3
81 7 82.3555 98.5117 83.885 -2 -5 -3
82 6 87.4771 104.11 94.9693 -2 5 -4
83 7 87.2819 104.479 94.1012 -2 5 -4
84 7 88.4329 104.289 95.0911 -2 5 -4
85 6 95.8713 101.733 78.0934 12 -3 4
86 7 94.9884 101.81 77.7063 12 -3 4
87 7 95.6429 101.117 78.7975 12 -3 4
88 6 80.2717 93.1358 90.0829 1 -4 -1
89 7 81.0193 93.0393 90.6529 1 -4 -1
90 7 79.8022 93.783 90.593 1 -4 -1
91 6 85.2234 92.6757 93.4603 -1 -2 1
92 7 84.8343 92.0085 94.0609 -1 -2 1
93 7 86.1604 92.4196 93.5805 -1 -2 1
94 6 90.585 87.9703 94.8502 6 -2 4
95 7 89.9283 88.5719 95.1921 6 -2 4
96 7 91.232 87.9306 95.5677 6 -2 4
97 6 94.1623 81.2234 102.098 -3 -1 -1
98 7 93.372 81.7428 102.317 -3 -1 -1
99 7 94.1849 81.4331 101.159 -3 -1 -1
100 6 78.792 93.3276 94.8648 -2 3 2
101 7 78.5253 93.6857 95.7331 -2 3 2
102 7 78.0036 92.8642 94.6155 -2 3 2
103 6 90.5532 89.9983 96.9725 -3 2 -3
104 7 90.7999 90.1396 97.901 -3 2 -3
105 7 89.9372 90.7362 96.774 -3 2 -3
106 6 75.486 74.5322 97.2479 0 -5 2
107 7 75.7634 75.2865 97.7633 0 -5 2
108 7 75.4913 74.918 96.3453 0 -5 2
109 6 105.452 79.3664 95.5791 0 -5 -1
110 7 104.745 79.8713 95.9854 0 -5 -1
111 7 106.301 79.7272 95.8883 0 -5 -1
112 6 94.1461 85.1802 92.0586 3 0 5
113 7 94.2124 85.0059 92.9948 3 0 5
114 7 94.9946 85.561 91.7801 3 0 5
115 6 104.984 82.2638 76.4388 -5 3 2
116 7 105.433 83.0848 76.1662 -5 3 2
117 7 104.955 81.7645 75.613 -5 3 2
118 6 84.9861 90.5502 95.3794 -3 -3 0
119 7 85.2921 90.1681 96.2031 -3 -3 0
120 7 85.3965 90.02 94.6925 -3 -3 0
121 6 78.8244 105.653 95.4726 2 0 -5
122 7 79.5431 105.322 96.03 2 0 -5
123 7 79.0509 106.571 95.4 2 0 -5
124 6 98.4498 83.329 91.88 -3 -2 0
125 7 99.0209 83.6605 91.1694 -3 -2 0
126 7 98.2711 84.1367 92.3744 -3 -2 0
127 6 86.8475 86.9031 84.3917 5 -2 -6
128 7 86.2255 86.6527 85.0795 5 -2 -6
129 7 87.4706 87.5032 84.8402 5 -2 -6
130 6 83.6535 95.1133 91.7384 -1 4 -4
131 7 83.393 94.2031 91.9093 -1 4 -4
132 7 82.9735 95.5899 92.2254 -1 4 -4
133 6 89.038 81.1278 89.18 4 0 -4
134 7 89.4353 80.6809 88.4384 4 0 -4
135 7 89.5331 80.7641 89.9247 4 0 -4
136 6 91.5525 95.6078 104.09 -4 -6 -5
137 7 92.2953 95.0097 104.094 -4 -6 -5
138 7 90.8539 95.315 103.513 -4 -6 -5
139 6 81.7807 99.0797 105.046 -6 -8 -2
140 7 82.1515 98.3405 104.564 -6 -8 -2
141 7 82.5827 99.5922 105.277 -6 -8 -2
142 6 88.1702 77.9328 87.9165 4 2 -1
143 7 88.0938 77.44 87.1052 4 2 -1
144 7 88.1065 77.2097 88.5609 4 2 -1
145 6 92.9145 88.3482 87.8874 -4 3 -3
146 7 92.5369 87.8335 88.6552 -4 3 -3
147 7 92.3769 88.1121 87.1327 -4 3 -3
148 6 83.6897 97.1146 76.1313 5 2 6
149 7 83.5285 98.014 75.8169 5 2 6
150 7 84.2848 97.3065 76.8405 5 2 6
151 6 88.057 103.981 106.526 1 3 1
152 7 87.4367 104.51 73.5711 1 3 2
153 7 88.9118 104.206 73.4685 1 3 2
154 6 100.782 88.324 83.7794 -5 1 -1
155 7 100.552 88.857 83.0118 -5 1 -1
156 7 100.265 88.7942 84.4552 -5 1 -1
157 6 101.796 85.6701 74.0089 -4 6 1
158 7 102.62 85.6271 74.5101 -4 6 1
159 7 102.024 85.3268 106.591 -4 6 0
160 6 86.9393 88.6755 93.4385 -2 8 0
161 7 86.4913 88.2356 94.1795 -2 8 0
162 7 86.4785 88.3287 92.6897 -2 8 0
163 6 87.8324 95.8894 80.2628 -3 1 0
164 7 87.3926 95.2133 80.7758 -3 1 0
165 7 87.5415 95.6304 79.3876 -3 1 0
166 6 98.9451 80.001 85.372 -6 -4 -5
167 7 99.6958 79.8547 85.9454 -6 -4 -5
168 7 99.1686 80.8808 85.0367 -6 -4 -5
169 6 83.474 105.24 93.4572 3 -3 -3
170 7 83.9755 105.296 92.648 3 -3 -3
171 7 83.9754 105.779 94.0755 3 -3 -3
172 6 82.2335 91.3701 103.268 -2 -3 -8
173 7 81.8791 91.4335 104.147 -2 -3 -8
174 7 82.5067 90.429 103.286 -2 -3 -8
175 6 103.046 79.7561 77.7542 1 2 0
176 7 103.966 79.5164 77.6349 1 2 0
177 7 102.992 80.6007 77.2906 1 2 0
178 6 74.9608 91.9505 88.7885 2 1 0
179 7 75.5404 92.4833 88.1778 2 1 0
180 7 74.5859 92.7116 89.2166 2 1 0
181 6 103.24 103.671 89.395 -6 -3 5
182 7 102.976 104.212 88.6541 -6 -3 5
183 7 103.984 104.171 89.6923 -6 -3 5
184 6 87.1859 80.1308 82.629 4 -3 -3
185 7 86.9091 79.9118 81.7275 4 -3 -3
186 7 88.154 80.1815 82.6512 4 -3 -3
187 6 91.6416 77.8146 83.7394 -5 1 2
188 7 91.7755 78.1363 82.8413 -5 1 2
189 7 90.7225 77.6027 83.6083 -5 1 2
190 6 103.978 94.5298 75.1121 5 0 2
191 7 104.322 94.1858 75.9451 5 0 2
192 7 103.417 93.7641 74.8931 5 0 2
193 6 82.5882 89.104 75.251 0 6 2
194 7 82.447 89.9603 74.8612 0 6 2
195 7 83.517 89.1776 75.5592 0 6 2
196 6 105.971 98.2326 94.2646 2 -1 2
197 7 105.324 98.8805 94.5769 2 -1 2
198 7 106.487 98.7955 93.6687 2 -1 2
199 6 76.6984 85.8403 74.1834 -3 0 1
200 7 75.882 86.3247 74.3747 -3 0 1
201 7 76.4872 85.4213 73.34 -3 0 1
202 6 104.105 82.103 101.673 3 -3 -1
203 7 103.203 82.0572 101.988 3 -3 -1
204 7 104.204 82.9545 101.273 3 -3 -1
205 6 82.2444 76.618 80.2275 1 -3 1
206 7 82.9806 76.4565 79.6128 1 -3 1
207 7 82.474 76.1598 81.0312 1 -3 1
208 6 101.213 74.0775 96.6429 -8 -4 1
209 7 101.337 74.39 97.5558 -8 -4 1
210 7 102.008 74.4033 96.215 -8 -4 1
211 6 88.3702 91.1587 93.0156 5 -1 -3
212 7 89.0782 91.0969 92.3568 5 -1 -3
213 7 88.1262 90.2207 93.0247 5 -1 -3
214 6 104.036 92.3196 83.5141 -5 -1 -1
215 7 104.675 91.5867 83.6301 -5 -1 -1
216 7 104.098 92.762 84.373 -5 -1 -1
217 6 104.219 106.402 81.3631 -7 -2 -3
218 7 104.624 73.7869 81.1416 -7 -1 -3
219 7 103.441 106.681 81.8587 -7 -2 -3
220 6 81.8521 82.851 79.9647 8 3 4
221 7 81.8827 82.7433 78.9971 8 3 4
222 7 82.2794 81.9885 80.214 8 3 4
223 6 83.0033 101.365 94.4155 -3 6 1
224 7 83.4266 101.502 93.5599 -3 6 1
225 7 82.0886 101.348 94.1311 -3 6 1
226 6 99.6097 93.2819 87.8188 5 -3 3
227 7 98.8993 93.1054 87.2285 5 -3 3
228 7 99.5528 92.6006 88.5024 5 -3 3
229 6 77.3811 87.9841 77.2411 -1 -3 -2
230 7 77.3079 88.8035 77.7378 -1 -3 -2
231 7 78.2783 87.6542 77.3666 -1 -3 -2
232 6 101.095 88.5726 98.8234 -1 3 -1
233 7 101.669 88.0126 98.31 -1 3 -1
234 7 101.113 89.3693 98.2953 -1 3 -1
235 6 100.02 94.5503 77.3979 -4 -5 0
236 7 99.0575 94.6477 77.3767 -4 -5 0
237 7 100.136 93.6688 77.7882 -4 -5 0
238 6 91.8351 78.8591 89.9575 -1 2 -3
239 7 92.7635 79.0625 89.7464 -1 2 -3
240 7 91.4557 78.8995 89.0663 -1 2 -3
241 6 96.8994 94.269 103.228 0 -1 -1
242 7 97.1923 95.1846 103.296 0 -1 -1
243 7 97.6747 93.6898 103.284 0 -1 -1
244 6 81.8675 77.1254 94.0363 -3 4 7
245 7 82.2208 76.2922 93.7175 -3 4 7
246 7 80.9268 76.9687 93.8977 -3 4 7
247 6 75.0961 77.8948 81.4802 -4 -4 1
248 7 74.5103 78.4688 81.9658 -4 -4 1
249 7 75.4976 78.4125 80.7793 -4 -4 1
250 6 85.1132 97.8798 104.592 -1 -6 -3
251 7 84.7157 97.844 103.715 -1 -6 -3
252 7 86.003 98.1302 104.383 -1 -6 -3
253 6 93.4674 85.24 80.2366 -1 -2 4
254 7 94.0908 85.6991 80.7764 -1 -2 4
255 7 94.0216 85.071 79.4511 -1 -2 4
256 6 94.197 85.0653 106.63 9 4 3
257 7 93.6043 85.5353 106.033 9 4 3
258 7 94.9798 85.1436 106.069 9 4 3
259 6 78.2545 99.9908 78.1537 -5 -5 -1
260 7 78.9116 99.5353 78.6914 -5 -5 -1
261 7 78.8187 100.685 77.785 -5 -5 -1
262 6 81.0803 85.1818 81.7737 -1 -1 -4
263 7 81.8245 85.7908 81.5984 -1 -1 -4
264 7 81.1773 84.4184 81.174 -1 -1 -4
265 6 93.0895 81.6855 78.0372 0 -7 0
266 7 92.6346 80.9886 77.5615 0 -7 0
267 7 92.4043 82.3554 78.087 0 -7 0
268 6 94.4277 99.5056 94.4593 4 -1 -5
269 7 93.7215 98.8639 94.5698 4 -1 -5
270 7 94.8813 99.1191 93.6841 4 -1 -5
271 6 95.6921 83.9812 96.6416 1 7 2
272 7 96.5443 84.4043 96.8558 1 7 2
273 7 96.0556 83.0929 96.4685 1 7 2
274 6 73.3218 85.1511 81.4295 -5 5 -2
275 7 73.4081 85.1003 80.4652 -5 5 -2
276 7 106.43 84.27 81.6015 -6 5 -2
277 6 86.3172 84.7353 79.9067 -7 6 -2
278 7 86.2686 85.6098 80.3095 -7 6 -2
279 7 86.795 84.173 80.5225 -7 6 -2
280 6 105.371 77.9068 85.8504 -3 -6 0
281 7 105.656 78.2229 86.7254 -3 -6 0
282 7 105.096 77.0284 86.0989 -3 -6 0
283 6 76.3077 89.9389 94.069 7 0 1
284 7 75.7017 89.2246 94.3196 7 0 1
285 7 76.6827 90.1205 94.9557 7 0 1
286 6 95.0912 90.7475 93.3014 2 4 -1
287 7 94.6076 91.5323 93.5535 2 4 -1
288 7 95.9072 91.0696 92.9113 2 4 -1
289 6 84.4511 87.2266 73.3013 -2 0 1
290 7 85.305 87.6474 106.629 -2 0 0
291 7 84.6255 86.4994 73.9081 -2 0 1
292 6 97.0988 102.804 96.1557 0 0 0
293 7 96.9799 102.908 95.213 0 0 0
294 7 97.217 101.837 96.3015 0 0 0
295 6 84.4509 76.0266 90.3667 1 5 2
296 7 84.0563 75.9831 89.4855 1 5 2
297 7 83.7175 75.6461 90.846 1 5 2
298 6 105.898 87.5012 89.087 3 -3 -4
299 7 105.396 88.2311 89.4438 3 -3 -4
300 7 105.43 87.2328 88.2772 3 -3 -4
301 6 103.833 98.9427 85.1897 4 8 -3
302 7 103.67 99.8786 85.2578 4 8 -3
303 7 102.913 98.6864 85.2713 4 8 -3
304 6 83.0377 103.157 96.7658 2 0 -1
305 7 82.8552 102.444 96.1432 2 0 -1
306 7 83.9845 103.208 96.5595 2 0 -1
307 6 99.9322 88.9129 76.1134 2 2 -5
308 7 100.761 89.2313 76.4544 2 2 -5
309 7 99.7962 88.3454 76.8789 2 2 -5
310 6 101.267 103.603 100.5 4 -4 2
311 7 102.115 104.067 100.557 4 -4 2
312 7 100.794 104.053 101.207 4 -4 2
313 6 99.7883 96.0675 92.4768 -1 -2 -6
314 7 99.8269 96.5065 91.6229 -1 -2 -6
315 7 99.3758 96.8048 92.9711 -1 -2 -6
316 6 102.952 81.7046 95.8814 3 2 -2
317 7 102.543 82.2185 95.1618 3 2 -2
318 7 103.657 82.3425 96.1295 3 2 -2
319 6 94.9482 94.3453 88.3601 -2 -2 -10
320 7 95.4529 95.1446 88.185 -2 -2 -10
321 7 95.3722 94.051 89.1781 -2 -2 -10
322 6 93.6196 81.8303 99.524 1 0 2
323 7 94.0512 82.5657 99.0882 1 0 2
324 7 93.0597 81.5456 98.7888 1 0 2
325 6 74.8949 85.596 84.9987 0 -1 -5
326 7 74.1636 86.0705 84.5891 0 -1 -5
327 7 75.5254 86.3026 85.0367 0 -1 -5
328 6 81.2122 100.141 97.8781 0 -6 5
329 7 80.9743 100.704 97.1191 0 -6 5
330 7 81.3034 99.2384 97.5736 0 -6 5
331 6 99.6443 101.248 86.7273 2 2 1
332 7 99.5107 101.024 85.7917 2 2 1
333 7 100.031 100.418 87.0696 2 2 1
334 6 104.319 76.8208 80.7793 -5 2 0
335 7 104.81 77.6459 80.8292 -5 2 0
336 7 104.617 76.2639 81.5182 -5 2 0
337 6 80.8403 94.325 76.5068 -4 0 -3
338 7 80.8253 95.1877 76.9401 -4 0 -3
339 7 79.905 94.1856 76.2864 -4 0 -3
340 6 104.382 89.9577 97.1887 -2 -5 -1
341 7 103.972 90.5287 97.871 -2 -5 -1
342 7 103.539 89.5107 96.9695 -2 -5 -1
343 6 80.7083 106.672 83.7603 -1 -3 -8
344 7 80.2866 74.0016 83.4071 -1 -2 -8
345 7 80.3558 106.004 83.1725 -1 -3 -8
346 6 74.7918 80.1556 89.928 6 -6 -2
347 7 75.2995 79.9607 89.1286 6 -6 -2
348 7 73.8493 80.0681 89.7108 6 -6 -2
349 6 91.5253 86.3056 82.4979 -4 -2 -4
350 7 90.6299 86.0568 82.2235 -4 -2 -4
351 7 92.0225 85.8224 81.8182 -4 -2 -4
352 6 97.5159 106.465 92.9499 -4 -7 -3
353 7 96.9106 73.756 92.8856 -4 -6 -3
354 7 97.4818 106.184 93.8757 -4 -7 -3
355 6 103.59 105.354 87.2631 -1 -2 -6
356 7 103.464 106.159 86.7177 -1 -2 -6
357 7 104.5 105.415 87.539 -1 -2 -6
358 6 88.9152 84.872 77.788 -5 0 2
359 7 89.7242 85.4069 77.9033 -5 0 2
360 7 88.8299 84.6799 78.7266 -5 0 2
361 6 78.4706 77.509 93.1051 -2 9 3
362 7 78.8852 76.8134 92.5674 -2 9 3
363 7 77.5205 77.4055 92.9682 -2 9 3
364 6 80.2797 106.385 92.665 -1 -3 -1
365 7 80.58 105.925 93.4649 -1 -3 -1
366 7 79.3296 106.125 92.6882 -1 -3 -1
367 5 74.3513 105.627 91.9782 2 0 -5
368 6 79.2116 100.922 99.5915 -1 -3 -7
369 7 79.7218 100.572 98.8454 -1 -3 -7
370 7 78.8133 100.09 99.8418 -1 -3 -7
371 6 91.9993 106.001 84.732 -3 -2 -6
372 7 92.0846 105.202 85.2764 -3 -2 -6
373 7 91.1136 106.228 85.0411 -3 -2 -6
374 6 103.765 89.2415 89.6668 0 -3 0
375 7 103.345 89.3493 90.5278 0 -3 0
376 7 104.002 90.1619 89.4561 0 -3 0
377 6 84.3331 94.6641 73.5832 7 4 0
378 7 85.0764 95.0565 106.578 7 4 -1
379 7 84.3605 95.0523 74.4592 7 4 0
380 6 96.4679 97.332 82.6964 -1 1 5
381 7 97.3439 97.3454 82.2923 -1 1 5
382 7 96.0947 96.6124 82.2097 -1 1 5
383 6 92.6749 88.1419 106.372 -4 2 -3
384 7 92.2754 88.1394 105.493 -4 2 -3
385 7 93.5985 88.2827 106.144 -4 2 -3
386 6 98.7466 85.561 102.571 -2 -3 -2
387 7 98.0332 85.8358 102.001 -2 -3 -2
388 7 99.143 84.8852 102.022 -2 -3 -2
389 6 77.2804 89.135 105.315 -1 -2 5
390 7 76.5237 89.6985 105.338 -1 -2 5
391 7 77.4344 89.1351 104.355 -1 -2 5
392 6 105.395 76.5538 95.4019 -4 3 1
393 7 105.256 77.4944 95.3605 -4 3 1
394 7 106.122 76.5584 96.0557 -4 3 1
395 6 88.9924 82.7364 94.9858 6 -1 -2
396 7 89.0825 83.4595 95.6126 6 -1 -2
397 7 88.4529 82.9766 94.2411 6 -1 -2
398 6 103.871 88.1561 83.8721 3 1 2
399 7 103.19 88.2127 83.182 3 1 2
400 7 103.381 87.608 84.5207 3 1 2
401 6 100.1 86.5589 95.5986 0 0 -3
402 7 100.137 87.5133 95.7287 0 0 -3
403 7 99.141 86.4488 95.4791 0 0 -3
404 6 94.8119 91.2415 102.577 1 -1 0
405 7 94.279 91.1592 103.366 1 -1 0
406 7 95.5456 90.632 102.749 1 -1 0
407 6 104.359 91.3499 99.8906 0 1 2
408 7 105.292 91.5359 99.6989 0 1 2
409 7 104.03 92.2493 100.08 0 1 2
410 6 83.1304 84.7358 78.2172 -6 -2 -4
411 7 83.6814 83.9518 78.0112 -6 -2 -4
412 7 83.3661 84.8897 79.1299 -6 -2 -4
413 6 81.0795 93.3611 100.401 1 1 -1
414 7 81.0891 92.3793 100.459 1 1 -1
415 7 80.2745 93.6078 100.863 1 1 -1
416 6 102.81 96.3455 101.12 1 -1 -2
417 7 103.146 95.4476 101.123 1 -1 -2
418 7 102.327 96.3976 101.958 1 -1 -2
419 6 83.3318 94.8883 95.1736 4 0 0
420 7 82.98 94.552 95.9851 4 0 0
421 7 83.6102 94.1153 94.6655 4 0 0
422 6 99.5199 81.3353 89.0353 -1 1 -3
423 7 100.427 81.2115 89.3402 -1 1 -3
424 7 99.6476 82.0124 88.3544 -1 1 -3
425 6 81.4928 96.1456 93.3456 -1 1 0
426 7 82.1877 95.7869 93.8829 -1 1 0
427 7 81.1518 96.9705 93.6743 -1 1 0
428 6 79.7323 82.1894 105.18 0 0 -2
429 7 79.852 83.1548 105.265 0 0 -2
430 7 79.1269 81.9959 105.9 0 0 -2
431 6 104.636 101.356 74.9383 -9 -2 -3
432 7 104.845 100.641 75.5348 -9 -2 -3
433 7 105.533 101.652 74.8092 -9 -2 -3
434 6 88.9092 88.2278 101.042 -4 -3 -3
435 7 88.3866 87.8039 101.748 -4 -3 -3
436 7 88.3027 88.8558 100.614 -4 -3 -3
437 6 93.7433 95.3099 82.3783 -1 -1 0
438 7 94.0569 94.7993 81.6203 -1 -1 0
439 7 93.5942 96.0922 81.8315 -1 -1 0
440 6 81.0643 106.689 75.1924 0 -6 2
441 7 81.0297 73.3191 74.2335 0 -5 2
442 7 81.9616 73.6048 75.2495 0 -5 2
443 6 85.0958 90.1178 74.7918 2 3 -3
444 7 84.7264 90.7745 74.2186 2 3 -3
445 7 85.3072 89.4189 74.16 2 3 -3
446 6 104.437 83.7462 82.9122 -6 6 -6
447 7 103.732 84.3169 83.1467 -6 6 -6
448 7 104.016 82.8841 82.8861 -6 6 -6
449 6 99.7848 103.464 104.674 3 -3 -4
450 7 100.198 103.409 105.56 3 -3 -4
451 7 99.8929 102.546 104.44 3 -3 -4
452 6 104.313 103.849 82.3657 1 -3 0
453 7 104.769 104.533 81.8417 1 -3 0
454 7 104.888 103.09 82.2903 1 -3 0
455 6 91.7319 76.5034 78.5887 1 0 -4
456 7 91.3405 76.7563 77.7535 1 0 -4
457 7 91.375 77.2445 79.081 1 0 -4
458 6 76.9937 74.1516 101.331 -1 -4 -4
459 7 77.6947 74.7918 101.134 -1 -4 -4
460 7 76.8076 73.7129 100.494 -1 -4 -4
461 6 79.5426 96.0327 102.421 -5 6 6
462 7 79.0226 95.4913 103.042 -5 6 6
463 7 78.9501 96.0111 101.672 -5 6 6
464 5 100.945 82.7083 84.0857 3 -1 -5
465 6 75.6885 101.083 88.1724 4 -1 -4
466 7 75.8355 100.137 88.227 4 -1 -4
467 7 76.3529 101.338 88.8088 4 -1 -4
468 6 97.8105 86.0773 76.8187 -3 -3 -1
469 7 98.4941 86.0781 76.1415 -3 -3 -1
470 7 97.0078 85.9528 76.2687 -3 -3 -1
471 6 75.33 75.0278 105.504 0 2 6
472 7 75.5305 74.8504 106.425 0 2 6
473 7 75.9792 74.5304 104.988 0 2 6
474 6 89.891 77.7479 99.5805 4 -6 3
475 7 89.2815 78.1757 100.199 4 -6 3
476 7 90.1724 78.4993 99.0578 4 -6 3
477 6 86.6858 102.689 80.0576 -1 6 -1
478 7 85.7556 102.44 80.1061 -1 6 -1
479 7 86.8712 102.139 79.2927 -1 6 -1
480 6 105.735 106.635 85.1716 -5 -3 -3
481 7 105.863 106.13 85.9967 -5 -3 -3
482 7 104.858 73.5956 85.3069 -5 -2 -3
483 6 73.8497 77.1572 97.0125 4 -1 -4
484 7 73.6689 77.018 97.9493 4 -1 -4
485 7 74.7873 77.0203 97.0088 4 -1 -4
486 6 85.0496 73.35 95.1981 1 1 -1
487 7 85.7809 106.347 95.5935 1 0 -1
488 7 85.5047 74.1197 94.8234 1 1 -1
489 6 93.2416 84.3359 76.4353 -5 -3 0
490 7 92.4486 83.8022 76.4083 -5 -3 0
491 7 93.8617 83.7375 76.8344 -5 -3 0
492 6 96.6401 98.2968 98.491 9 -6 2
493 7 96.7954 97.6227 99.1646 9 -6 2
494 7 97.3732 98.1921 97.8551 9 -6 2
495 6 73.7176 103.776 97.5673 -2 -2 -3
496 7 74.1712 103.223 96.9191 -2 -2 -3
497 7 74.2669 104.529 97.3303 -2 -2 -3
498 6 97.3776 79.7507 89.8079 1 -1 0
499 7 98.0363 80.0325 89.1559 1 -1 0
500 7 97.702 80.2132 90.5732 1 -1 0
501 6 96.568 99.9562 96.2859 -1 -2 6
502 7 96.0005 99.4887 96.9069 -1 -2 6
503 7 96.0275 99.9504 95.4814 -1 -2 6
504 6 86.625 80.4732 87.3164 2 6 -2
505 7 85.8003 80.1231 87.6122 2 6 -2
506 7 87.3239 79.8433 87.4713 2 6 -2
507 6 105.971 87.9004 77.5781 3 1 4
508 7 105.753 88.7818 77.9265 3 1 4
509 7 105.31 87.788 76.8956 3 1 4
510 6 79.0592 84.8609 104.017 3 2 2
511 7 78.1845 84.9815 104.426 3 2 2
512 7 79.2766 85.7033 103.599 3 2 2
513 6 87.0944 96.2222 77.7263 -1 5 2
514 7 88.0265 96.4291 77.5491 -1 5 2
515 7 86.6339 96.598 76.9552 -1 5 2
516 6 99.2881 81.217 99.859 2 -5 -5
517 7 98.358 80.9784 99.7052 2 -5 -5
518 7 99.7122 80.3712 100.004 2 -5 -5
519 6 87.8319 93.4083 105.315 3 -4 -6
520 7 88.1949 94.2058 105.671 3 -4 -6
521 7 87.8253 93.673 104.379 3 -4 -6
522 6 105.758 93.0494 93.5569 3 3 1
523 7 105.69 93.978 93.3076 3 3 1
524 7 105.792 93.0575 94.525 3 3 1
525 6 84.0343 98.2297 73.5202 1 4 -2
526 7 84.3892 98.1312 106.104 1 4 -3
527 7 83.8538 97.3496 73.8236 1 4 -2
528 6 99.0603 93.8425 74.1938 4 0 2
529 7 99.1602 94.0309 75.1337 4 0 2
530 7 98.7587 92.9336 74.1261 4 0 2
531 6 81.6106 91.2604 86.1668 -1 -1 -1
532 7 80.6765 91.0652 86.3846 -1 -1 -1
533 7 82.0942 90.8647 86.885 -1 -1 -1
534 6 90.8041 74.9861 81.1145 7 5 0
535 7 90.3706 74.2273 80.6816 7 5 0
536 7 90.4557 75.7821 80.6599 7 5 0
537 6 76.1342 94.9347 82.0226 5 -1 3
538 7 76.7669 95.4331 81.4884 5 -1 3
539 7 76.7417 94.3127 82.435 5 -1 3
540 6 93.8292 83.5798 88.842 2 9 -2
541 7 94.1479 84.4904 88.994 2 9 -2
542 7 93.8523 83.708 87.8867 2 9 -2
543 6 81.5433 80.0728 94.0549 5 -1 2
544 7 81.5234 79.1965 93.7075 5 -1 2
545 7 80.7708 80.4932 93.6268 5 -1 2
546 6 101.217 88.6874 73.5339 -3 0 3
547 7 101.048 87.7689 73.3492 -3 0 3
548 7 100.664 88.696 74.334 -3 0 3
549 6 73.6961 96.1121 82.3269 -1 0 5
550 7 74.5674 95.6943 82.1988 -1 0 5
551 7 106.591 95.3302 82.4882 -2 0 5
552 6 78.1984 94.3126 76.1495 -3 -2 -2
553 7 77.5549 93.7775 76.5857 -3 -2 -2
554 7 77.7304 95.1561 76.2842 -3 -2 -2
555 6 85.4946 79.0045 100.835 -3 2 2
556 7 85.3564 78.4033 101.583 -3 2 2
557 7 84.7487 79.5909 101.014 -3 2 2
558 6 82.9406 88.8624 103.848 -7 0 2
559 7 83.4052 88.242 103.283 -7 0 2
560 7 82.2247 88.2903 104.164 -7 0 2
561 6 99.5908 106.58 99.3386 2 -2 -1
562 7 99.9027 74.0231 99.3682 2 -1 -1
563 7 100.234 106.171 99.9169 2 -2 -1
564 6 81.0706 88.1664 100.411 1 -4 -3
565 7 80.2513 88.323 100.925 1 -4 -3
566 7 80.7675 88.1717 99.4855 1 -4 -3
567 6 95.693 90.5526 80.7907 -3 1 6
568 7 95.2839 90.8836 79.9791 -3 1 6
569 7 95.9658 89.6804 80.473 -3 1 6
570 6 73.9704 81.3323 81.7691 3 2 -4
571 7 73.6918 81.6612 82.632 3 2 -4
572 7 74.8022 81.8011 81.6259 3 2 -4
573 6 76.4603 76.7691 90.8258 0 -1 1
574 7 76.412 76.8354 89.8477 0 -1 1
575 7 77.3029 76.3049 90.9712 0 -1 1
576 6 89.3067 85.591 91.4616 -8 -1 3
577 7 89.7022 85.7556 92.3231 -8 -1 3
578 7 89.951 84.9396 91.1683 -8 -1 3
579 6 105.991 106.455 76.0972 1 -5 -3
580 7 106.269 105.588 76.3952 1 -5 -3
581 7 105.219 106.648 76.6256 1 -5 -3
582 6 75.8804 93.2014 93.4841 1 2 2
583 7 75.4658 94.0662 93.5593 1 2 2
584 7 75.1876 92.5606 93.6298 1 2 2
585 6 92.357 100.264 75.6039 2 6 -3
586 7 91.53 100.585 75.9995 2 6 -3
587 7 91.9319 99.6902 74.9857 2 6 -3
588 6 102.763 81.7347 86.8666 0 3 1
589 7 102.127 81.5169 87.5531 0 3 1
590 7 102.241 81.6274 86.0587 0 3 1
591 6 101.907 105.709 93.201 -1 -2 -11
592 7 102.844 105.52 93.2549 -1 -2 -11
593 7 101.778 106.61 92.9037 -1 -2 -11
594 6 82.4219 80.1826 80.7962 4 -7 -3
595 7 82.9001 79.6103 81.4045 4 -7 -3
596 7 82.5563 79.7427 79.9437 4 -7 -3
597 6 76.2195 95.4187 97.5876 2 5 1
598 7 76.5438 96.2157 97.1326 2 5 1
599 7 76.4584 95.6172 98.4784 2 5 1
600 6 90.929 80.6058 73.5692 -3 2 -2
601 7 91.2574 81.4648 73.8664 -3 2 -2
602 7 91.6114 80.3456 106.385 -3 2 -3
603 6 81.115 97.2683 81.4796 0 0 1
604 7 81.297 96.3865 81.1397 0 0 1
605 7 81.1761 97.2102 82.4389 0 0 1
606 6 83.3285 81.298 101.283 0 1 0
607 7 82.8604 81.8036 101.947 0 1 0
608 7 83.782 82.0571 100.905 0 1 0
609 6 91.0562 92.926 93.3784 -2 1 4
610 7 91.1782 92.2967 92.685 -2 1 4
611 7 90.301 92.53 93.814 -2 1 4
612 6 89.5487 73.9829 85.0057 -1 4 3
613 7 89.1889 73.7396 84.1562 -1 4 3
614 7 88.7246 74.2417 85.4201 -1 4 3
615 6 76.7196 91.0061 75.0349 -6 -1 -1
616 7 76.2678 91.0962 75.879 -6 -1 -1
617 7 76.2809 90.2389 74.6582 -6 -1 -1
618 6 78.9785 103.71 103.704 -1 4 -7
619 7 78.4718 102.932 103.902 -1 4 -7
620 7 79.0703 103.68 102.738 -1 4 -7
621 6 81.7004 106.514 86.3673 4 1 6
622 7 82.5682 106.386 85.9982 4 1 6
623 7 81.1125 73.3636 85.6612 4 2 6
624 6 88.1057 99.5378 77.4912 -9 0 -2
625 7 88.7288 100.029 76.9575 -9 0 -2
626 7 88.76 99.0996 78.0225 -9 0 -2
627 6 81.0661 83.0248 76.3555 6 7 4
628 7 80.2896 83.2233 75.8142 6 7 4
629 7 81.3024 83.8 76.8859 6 7 4
630 6 96.275 81.0053 96.3742 -6 -2 -5
631 7 97.1276 81.172 96.7529 -6 -2 -5
632 7 96.5363 80.3001 95.7675 -6 -2 -5
633 6 90.8517 77.0703 75.9383 -5 -4 0
634 7 91.5489 76.7661 75.3334 -5 -4 0
635 7 90.1842 76.4021 75.7508 -5 -4 0
636 6 89.1731 100.162 89.8692 -1 -1 4
637 7 88.4114 100.743 90.0079 -1 -1 4
638 7 88.8273 99.3998 90.3618 -1 -1 4
639 6 74.1282 76.4143 89.4736 3 -3 -4
640 7 74.5203 76.7031 90.3064 3 -3 -4
641 7 74.5913 75.5674 89.4667 3 -3 -4
642 6 103.532 94.3149 96.2203 3 -1 9
643 7 104.299 93.8043 95.9935 3 -1 9
644 7 103.978 95.0994 96.5718 3 -1 9
645 6 91.6618 81.7924 97.1047 -3 0 -5
646 7 92.018 82.2737 96.3681 -3 0 -5
647 7 91.4085 81.0099 96.6464 -3 0 -5
648 6 87.0395 87.907 73.8394 -1 -5 2
649 7 87.4435 87.3206 74.5131 -1 -5 2
650 7 87.8613 88.3044 73.5453 -1 -5 2
651 5 86.2748 73.5535 77.8966 2 -6 -3
652 6 86.9074 83.0891 103.8 -2 -2 -5
653 7 86.4278 83.0251 104.627 -2 -2 -5
654 7 86.6172 83.925 103.449 -2 -2 -5
655 6 87.7479 85.6308 96.0474 8 0 -4
656 7 88.3798 86.0978 96.618 8 0 -4
657 7 86.9238 86.0692 96.2846 8 0 -4
658 6 101.221 83.6086 78.3773 3 4 4
659 7 101.507 84.5037 78.1704 3 4 4
660 7 101.08 83.5293 79.3077 3 4 4
661 6 93.2124 81.5424 93.569 -5 -4 -3
662 7 92.3235 81.3159 93.2285 -5 -4 -3
663 7 93.6475 81.6677 92.7378 -5 -4 -3
664 6 80.723 90.1088 91.216 1 0 -4
665 7 79.7871 90.2965 91.3182 1 0 -4
666 7 80.7452 89.2274 90.7888 1 0 -4
667 6 79.1857 75.9404 76.514 -2 3 -1
668 7 78.672 76.0257 77.3313 -2 3 -1
669 7 79.5836 76.8081 76.3568 -2 3 -1
670 6 93.2518 76.7225 91.4917 5 0 -5
671 7 92.8773 76.9342 90.6351 5 0 -5
672 7 93.1552 77.5218 92.0138 5 0 -5
673 6 101.531 95.9275 103.658 -1 5 -6
674 7 101.107 96.0662 104.513 -1 5 -6
675 7 102.413 95.6343 103.922 -1 5 -6
676 6 85.423 89.7561 105.365 -5 0 2
677 7 85.1912 90.7022 105.425 -5 0 2
678 7 84.5918 89.2721 105.263 -5 0 2
679 6 99.9067 89.9078 94.8349 0 -2 -2
680 7 99.8289 90.2556 93.9368 0 -2 -2
681 7 99.2254 90.4423 95.2958 0 -2 -2
682 6 92.6383 96.1761 98.6638 -5 3 -4
683 7 92.9058 95.6227 99.4213 -5 3 -4
684 7 93.4503 96.2854 98.1294 -5 3 -4
685 6 76.1985 86.9776 91.7871 -1 -2 -4
686 7 76.9776 87.3794 92.1755 -1 -2 -4
687 7 75.9934 87.514 91.0164 -1 -2 -4
688 6 101.604 77.3518 81.974 -2 1 -1
689 7 102.463 77.2836 81.5485 -2 1 -1
690 7 101.854 77.6062 82.8727 -2 1 -1
691 6 104.784 91.5328 102.635 -1 0 -8
692 7 105.628 91.3597 102.192 -1 0 -8
693 7 104.2 91.0254 102.045 -1 0 -8
694 6 99.4725 100.706 93.8021 0 0 0
695 7 100.062 101.117 94.4495 0 0 0
696 7 98.8308 101.413 93.7653 0 0 0
697 6 85.9862 87.1663 81.4326 3 -2 -2
698 7 86.2285 86.6674 82.2222 3 -2 -2
699 7 86.7551 87.6649 81.0927 3 -2 -2
700 6 84.1605 101.491 101.927 5 -1 3
701 7 84.8333 102.158 101.811 5 -1 3
702 7 84.0276 101.183 101.033 5 -1 3
703 6 79.1442 103.433 100.669 -1 -2 -3
704 7 79.9644 103.561 100.177 -1 -2 -3
705 7 78.8492 102.583 100.333 -1 -2 -3
706 6 87.1752 93.4074 97.7219 0 1 3
707 7 86.5605 93.5577 98.4498 0 1 3
708 7 87.2968 94.2736 97.3587 0 1 3
709 6 103.445 90.9937 92.32 1 -1 -2
710 7 102.909 91.3087 93.055 1 -1 -2
711 7 104.235 91.4667 92.5233 1 -1 -2
712 6 82.469 95.929 89.2816 3 -1 2
713 7 82.6643 95.1669 89.808 3 -1 2
714 7 81.5099 96.0593 89.3314 3 -1 2
715 6 77.4874 93.4441 84.7108 3 3 -2
716 7 77.9263 93.6658 83.8868 3 3 -2
717 7 77.6745 94.2397 85.2246 3 3 -2
718 6 102.147 102.806 83.6744 1 4 3
719 7 102.82 102.873 84.3545 1 4 3
720 7 102.772 103.282 83.0904 1 4 3
721 6 100.42 74.4817 92.2974 3 3 0
722 7 100.321 75.4416 92.3158 3 3 0
723 7 99.4985 74.2148 92.3175 3 3 0
724 6 95.7466 79.8464 104.016 -1 2 -3
725 7 96.6352 79.7911 103.646 -1 2 -3
726 7 95.1263 80.0065 103.292 -1 2 -3
727 6 82.7658 99.5539 78.5326 -2 1 0
728 7 83.2401 99.9761 77.8278 -2 1 0
729 7 83.2134 98.7145 78.7129 -2 1 0
730 6 94.3833 85.7805 87.3334 -4 -3 -4
731 7 94.5753 85.6958 86.4054 -4 -3 -4
732 7 94.0622 86.6917 87.4682 -4 -3 -4
733 6 104.534 102.164 79.5678 1 -3 -2
734 7 105.332 102.712 79.7498 1 -3 -2
735 7 104.021 102.795 79.0441 1 -3 -2
736 6 90.5074 86.8446 105.064 -7 -4 -2
737 7 89.6071 86.4529 104.947 -7 -4 -2
738 7 90.3257 87.5761 105.657 -7 -4 -2
739 6 75.7296 80.9417 74.9572 4 -1 -1
740 7 76.0478 80.0378 75.1843 4 -1 -1
741 7 75.2648 81.2545 75.7358 4 -1 -1
742 6 91.8956 86.9158 89.8679 -4 1 -2
743 7 91.0965 86.3743 89.8694 -4 1 -2
744 7 91.9241 87.1886 90.7879 -4 1 -2
745 6 80.2501 103.897 88.1073 5 -5 -2
746 7 80.5178 104.716 88.5184 5 -5 -2
747 7 81.0913 103.459 87.9929 5 -5 -2
748 6 96.7981 81.2887 92.5248 -1 8 0
749 7 96.1415 81.8409 92.1002 -1 8 0
750 7 97.5212 81.8928 92.3028 -1 8 0
751 6 75.0717 81.8992 99.581 -2 -3 1
752 7 74.5859 82.3371 98.8467 -2 -3 1
753 7 74.945 82.6252 100.201 -2 -3 1
754 6 101.667 90.5186 103.647 -5 0 0
755 7 102.557 90.412 104.008 -5 0 0
756 7 101.809 91.2523 103.039 -5 0 0
757 6 80.5781 78.9886 76.0574 -1 -4 2
758 7 80.144 79.3122 75.2439 -1 -4 2
759 7 81.4714 79.3304 75.9746 -1 -4 2
760 6 96.3411 98.9744 92.0024 1 0 -3
761 7 96.7351 99.66 91.4534 1 0 -3
762 7 96.5635 98.1888 91.4463 1 0 -3
763 6 96.4742 94.3371 93.1596 -5 4 1
764 7 97.4218 94.31 92.9963 -5 4 1
765 7 96.4425 93.966 94.0209 -5 4 1
766 6 104.142 89.0602 104.485 1 -4 0
767 7 104.937 89.3543 104.054 1 -4 0
768 7 104.317 88.1172 104.459 1 -4 0
769 6 101.249 98.2397 85.0946 3 6 -1
770 7 100.475 97.7627 84.7101 3 6 -1
771 7 100.834 98.3389 85.9286 3 6 -1
772 6 88.9379 105.143 83.231 -3 5 -6
773 7 89.4233 104.314 83.0474 -3 5 -6
774 7 88.018 104.838 83.1898 -3 5 -6
775 6 98.4641 88.8618 90.0749 -1 3 1
776 7 98.3517 88.0333 89.5897 -1 3 1
777 7 99.2994 89.1616 89.6841 -1 3 1
778 6 78.9202 83.7337 74.514 2 10 6
779 7 78.2777 83.1303 74.0799 2 10 6
780 7 78.3282 84.3334 74.9883 2 10 6
781 6 100.442 92.9459 101.843 0 3 -2
782 7 99.9176 93.6219 101.414 0 3 -2
783 7 99.86 92.752 102.588 0 3 -2
784 6 79.9831 76.1887 85.9753 1 8 -3
785 7 79.3305 76.9073 85.9678 1 8 -3
786 7 79.4806 75.3684 85.8534 1 8 -3
787 6 74.1905 88.2021 105.137 -2 4 -1
788 7 74.0929 89.0958 104.718 -2 4 -1
789 7 74.7157 87.6119 104.579 -2 4 -1
790 6 77.2396 104.877 80.9845 -2 -2 -10
791 7 77.3618 105.828 80.8989 -2 -2 -10
792 7 78.1195 104.559 81.1142 -2 -2 -10
793 6 84.2858 76.2006 78.4421 2 7 -5
794 7 84.8111 75.4074 78.4447 2 7 -5
795 7 84.5007 76.6707 77.6244 2 7 -5
796 6 98.0535 100.804 90.8876 -3 -1 -2
797 7 97.9212 101.566 90.2943 -3 -1 -2
798 7 98.7094 101.11 91.5504 -3 -1 -2
799 6 86.6605 84.3729 106.55 2 -1 4
800 7 86.8635 85.0057 73.7898 2 -1 5
801 7 87.4894 83.9094 106.35 2 -1 4
802 6 89.6889 92.499 84.2027 7 3 4