ITEM: TIMESTEP
1000
ITEM: NUMBER OF ATOMS
8
ITEM: BOX BOUNDS pp pp pp
-20.3909 20.3909
-20.3909 20.3909
-60.3909 60.3909
ITEM: ATOMS id type xs ys zs
1 1 0.0168082 0.252731 0.62479
2 2 0.156824 0.0712953 0.421034
3 3 0.792956 0.313632 0.41132
4 4 0.806863 0.323991 0.416949
5 4 0.8096 0.30049 0.407351
6 3 0.0901284 0.0115571 0.646703
7 4 0.107294 0.0273923 0.648941
8 4 0.0720328 0.0197739 0.650997
ITEM: TIMESTEP
2000
ITEM: NUMBER OF ATOMS
8
ITEM: BOX BOUNDS pp pp pp
-20.3909 20.3909
-20.3909 20.3909
-60.3909 60.3909
ITEM: ATOMS id type xs ys zs
1 1 0.00528412 0.257529 0.626266
2 2 0.186161 0.10031 0.418226
3 3 0.77686 0.270906 0.409357
4 4 0.761188 0.317642 0.409309
5 4 0.764191 0.290505 0.401478
6 3 0.124007 0.0497729 0.625673
7 4 0.130442 0.0718262 0.626747
8 4 0.11812 0.0441837 0.633112
