LAMMPS (9 Nov 2016)
OMP_NUM_THREADS environment is not set. Defaulting to 1 thread. (../comm.cpp:90)
  using 1 OpenMP thread(s) per MPI task
Reading restart file ...
  restart file = 9 Nov 2016, LAMMPS = 9 Nov 2016
  orthogonal box = (-40.3071 -40.1457 -40.3469) to (40.7583 40.9197 40.7185)
  1 by 1 by 3 MPI processor grid
  48288 atoms
  32000 bonds
  16000 angles
Finding 1-2 1-3 1-4 neighbors ...
 Special bond factors lj:   0          0          0         
 Special bond factors coul: 0          0          0         
  2 = max # of 1-2 neighbors
  1 = max # of 1-3 neighbors
  1 = max # of 1-4 neighbors
  2 = max # of special neighbors
Resetting global fix info from restart file:
  fix style: npt, fix ID: 2
PPPM initialization ...
WARNING: Using 12-bit tables for long-range coulomb (../kspace.cpp:317)
  G vector (1/distance) = 0.306504
  grid = 72 72 72
  stencil order = 5
  estimated absolute RMS force accuracy = 0.00260906
  estimated relative force accuracy = 7.85711e-06
  using double precision FFTs
  3d grid and FFT values/proc = 193471 124416
All restart file global fix info was re-assigned
Neighbor list info ...
  1 neighbor list requests
  update every 1 steps, delay 10 steps, check yes
  max neighbors/atom: 2000, page size: 100000
  master list distance cutoff = 14
  ghost atom cutoff = 14
  binsize = 7, bins = 12 12 12
Setting up Verlet run ...
  Unit style    : real
  Current step  : 176000
  Time step     : 1
Memory usage per processor = 48.8288 Mbytes
Step Elapsed Temp Press Volume TotEng KinEng PotEng E_mol E_pair Pxx Pyy Pzz Pxz Pxz Pyz 
  176000        0    296.05539    204.46188     532728.3   -119232.83    42612.547   -161845.38    12163.352   -174008.73    161.98507   -9.1265297    460.52711    84.365293    84.365293   -97.863655 
  177000     1000    296.57685   -231.61451    533830.27   -119731.25    42687.603   -162418.85    12208.387   -174627.24   -277.29739   -322.42899   -95.117148    -147.7198    -147.7198    93.494403 
  178000     2000    298.60004   -38.465641    533185.49   -119093.42     42978.81   -162072.23    11918.267   -173990.49     18.58043   -176.18122    42.203865   -211.53144   -211.53144    70.341758 
  179000     3000    299.09676    201.59517    531923.67    -119053.7    43050.305   -162104.01    12099.228   -174203.24    69.352764    278.49084    256.94192     324.0413     324.0413    35.590692 
  180000     4000    300.09216   -169.52061    535556.53   -118671.07    43193.578   -161864.65    12068.507   -173933.16   -134.32399   -104.72341   -269.51442    60.092026    60.092026    45.872826 
  181000     5000    298.08426   -103.64089    533217.84   -119230.49    42904.571   -162135.06    12147.605   -174282.66    131.90992   -63.546627   -379.28597   -182.37097   -182.37097   -4.2751784 
  182000     6000    297.76297    173.15521    534739.16   -119125.14    42858.327   -161983.47    12106.428    -174089.9    530.47611   -19.151862    8.1414006   -87.504883   -87.504883     208.0103 
  183000     7000    295.42167    99.857304    534221.51   -119772.62    42521.334   -162293.95    12097.576   -174391.53    233.21219   -47.775014    114.13473    264.62134    264.62134   -276.22078 
  184000     8000    297.40506    -48.89022     533803.6   -119530.16    42806.811   -162336.97    12147.941   -174484.91   -293.20545    118.99978    27.535009    160.37837    160.37837    82.160613 
  185000     9000     298.1224    99.952288    533808.71   -119116.83    42910.062   -162026.89    12190.831   -174217.72    322.85449   -5.9299723   -17.067652    34.119206    34.119206   -91.908477 
  186000    10000    296.44071    133.73399    532307.55   -119634.32    42668.008   -162302.33    12031.418   -174333.74   -101.83357    167.53231    335.50323    39.326867    39.326867    105.02195 
  187000    11000    298.62894     123.7559    532999.18   -119221.98     42982.97   -162204.95    12158.915   -174363.87     278.9776   -300.37016    392.66027   -292.58857   -292.58857   -46.921485 
  188000    12000    296.91221   -177.91784    533749.54   -119915.99    42735.873   -162651.87    12345.584   -174997.45    50.221634   -272.30357    -311.6716    173.29078    173.29078    300.37188 
  189000    13000    297.77212   -145.17559    531110.34   -119820.58    42859.644   -162680.22    12021.448   -174701.67   -99.332255   -67.002748   -269.19177   -3.5042037   -3.5042037    22.789747 
  190000    14000    298.11236    134.98963    532447.89   -118903.73    42908.616   -161812.35    12320.426   -174132.77    165.75472    223.97137    15.242786   -76.663774   -76.663774    34.698712 
  191000    15000    298.05892    28.214717    532099.49   -119180.93    42900.925   -162081.86    12157.258   -174239.12   -6.3669423   -51.718068    142.72916   -57.105591   -57.105591     51.60992 
  192000    16000     298.4535    68.994865    531184.55   -119739.58    42957.718   -162697.29    12156.911    -174854.2    206.84104    14.458083   -14.314526    231.28095    231.28095    36.765077 
  193000    17000    296.96884    40.365298    532733.32   -119483.96    42744.024   -162227.98     12059.67   -174287.65   -262.61135    40.254044     343.4532    39.248521    39.248521    215.29044 
  194000    18000    298.34612    199.66242    533419.83    -119127.7    42942.263   -162069.96    12266.574   -174336.54    219.72664    129.21724    250.04338    15.721152    15.721152    119.65147 
  195000    19000    298.35437    193.55901    530200.83   -119346.85     42943.45    -162290.3    12058.725   -174349.03    144.15037     27.19444    409.33222    228.46663    228.46663    40.129918 
  196000    20000    297.33051   -5.2557584       534202   -119248.53    42796.081   -162044.61    12302.844   -174347.46   -144.46933    264.43246   -135.73041    144.15517    144.15517   -67.466699 
  197000    21000    298.59087    121.05363    533356.01   -119448.49    42977.491   -162425.98    12182.605   -174608.59   -32.910279    74.724591    321.34658   -223.72069   -223.72069      72.7652 
  198000    22000    296.80614    127.34026     534265.8   -119612.18    42720.606   -162332.78     12035.25   -174368.03    3.9637222    272.62498    105.43208   -76.174676   -76.174676    101.64209 
  199000    23000    297.36532   -56.112935    533352.78   -119499.28    42801.091   -162300.37    12098.397   -174398.77    -305.0935   -25.332448    162.08715     120.4547     120.4547   -71.404791 
  200000    24000    299.18675   -59.358134    533671.08   -118751.16    43063.258   -161814.42    12100.417   -173914.83   -170.87439   -127.88189    120.68188    151.65089    151.65089    151.17724 
  201000    25000    298.37038    -2.955559    534544.95   -119261.27    42945.754   -162207.02    12221.135   -174428.16   -117.62459    32.123188    76.634727   -131.81885   -131.81885   -162.55188 
  202000    26000    297.21478    16.105211    530682.93   -119481.39    42779.423   -162260.81     12120.67   -174381.48     -220.892     119.5534    149.65423    46.733095    46.733095   -46.812761 
  203000    27000    297.89475    113.29152     531633.9   -119556.85    42877.295   -162434.14    12184.346   -174618.49   -201.96317     440.4736    101.36413    60.379522    60.379522    152.97239 
  204000    28000    299.13263   -201.27639    534149.33   -119339.45    43055.468   -162394.92    12200.305   -174595.22   -284.17224   -15.329033   -304.32791    -188.0736    -188.0736   -132.23376 
  205000    29000    299.16581    13.631984    532356.98   -119350.17    43060.244   -162410.41    12158.587      -174569    54.383383    67.926766   -81.414196    216.27298    216.27298     133.1996 
  206000    30000    299.50097   -19.524158    531701.17   -119037.34    43108.485   -162145.82    12244.082    -174389.9    249.43507    -337.1287    29.121156    2.2593916    2.2593916    10.306403 
  207000    31000    298.68641    -176.5948    535188.73   -118746.07    42991.242   -161737.31    12261.053   -173998.36    -51.51055   -329.25416   -149.01969    38.046716    38.046716   -158.24291 
  208000    32000    299.70707    33.781636    533011.92   -119160.92     43138.15   -162299.07    12199.486   -174498.56    8.3106583    245.80662   -152.77237    142.01157    142.01157   -11.072626 
  209000    33000    297.52253    28.163398    533881.64   -119038.72     42823.72   -161862.44    12211.798   -174074.24    68.672573    93.212969   -77.395348    117.10805    117.10805   -125.55782 
  210000    34000    298.49783    157.17725    532904.53   -119451.91    42964.099   -162416.01    12370.965   -174786.98    131.00582     212.8319    127.69402     29.23694     29.23694   -148.73385 
  211000    35000    297.54434   -74.396095    531373.01   -119215.37    42826.858   -162042.23    12588.607   -174630.84   -67.102017   -33.627152   -122.45912    106.28939    106.28939    227.47426 
  212000    36000    296.42212    34.014444    534052.24    -119869.6    42665.332   -162534.93    12360.528   -174895.46    82.751281    128.04322   -108.75117       149.64       149.64    239.51333 
  213000    37000    298.91998   -82.115059    533506.43   -119316.77     43024.86   -162341.63    12422.892   -174764.52   -196.29116   -271.68033    221.62631   -16.255246   -16.255246   -79.267115 
  214000    38000    299.18578   -217.30323    533382.11   -119498.42    43063.119   -162561.53    12286.191   -174847.73   -156.81597   -529.04003    33.946304    87.071481    87.071481    194.19641 
  215000    39000    297.89189    31.927866    532406.36   -119160.44    42876.883   -162037.32    12335.952   -174373.28    295.26202   -114.62226   -84.856155    72.977701    72.977701   -22.716787 
  216000    40000    296.64781    246.66782    534091.51   -119589.19    42697.817      -162287    12247.039   -174534.04    134.45239     247.1063    358.44476   -148.91774   -148.91774   -87.329478 
  217000    41000    297.20063   -133.39166    531830.85   -119949.46    42777.386   -162726.85    12258.374   -174985.22   -65.774914   -164.59696   -169.80311     13.10807     13.10807   -156.46094 
  218000    42000    298.13736    -273.4882    532632.05   -119533.77    42912.215   -162445.98    12316.172   -174762.15   -533.97356   -276.67753   -9.8134973    35.296291    35.296291   -36.547694 
  219000    43000    299.29404   -103.18226    531026.47   -119170.04    43078.701   -162248.74    12302.989   -174551.73   -192.58486    82.490692   -199.45259   -176.06741   -176.06741    207.39605 
  220000    44000    298.66987    203.43889    529693.38   -119442.03    42988.861   -162430.89    12373.109      -174804    88.699774    360.06924    161.54765   -227.93127   -227.93127   -93.438411 
  221000    45000    296.82135   -181.70318    533247.73   -119671.78    42722.795   -162394.57    12269.263   -174663.84   -355.62624    178.52184   -368.00514   -102.50878   -102.50878    162.12594 
  222000    46000    297.06054   -154.71207    532068.77   -119872.26    42757.223   -162629.48    12143.741   -174773.22   -489.14086    119.66089    -94.65626    137.95836    137.95836   -187.83976 
  223000    47000    297.35657    107.12071    532780.82    -119378.7    42799.832   -162178.53    12240.245   -174418.77   -155.40783    221.38428    255.38568    5.1740034    5.1740034   -187.57173 
  224000    48000    298.89012   -137.76217     531660.6   -119187.71    43020.563   -162208.27    12456.695   -174664.97   -38.968507   -251.50323   -122.81478   -154.36356   -154.36356    92.563763 
  225000    49000     297.8538    131.34996    531725.19   -119347.19      42871.4   -162218.59    12223.465   -174442.06    200.27548   -265.70077    459.47518    12.433339    12.433339   -1.3702998 
  226000    50000    300.23063    70.779514    533501.78   -119196.24    43213.508   -162409.74    12337.051    -174746.8   -116.19926    139.84649    188.69131   -96.667556   -96.667556    -180.3304 
  227000    51000    297.83527   -162.57719    532070.37    -119230.9    42868.733   -162099.63    12349.465   -174449.09   -141.26969   -254.82766   -91.634211    103.93152    103.93152   -213.11722 
  228000    52000    297.93124    171.51782    531797.94   -119646.97    42882.547   -162529.52    12337.985    -174867.5     527.0575   -24.607658    12.103599    154.49272    154.49272    171.93715 
  229000    53000    297.97591    -149.6014    533505.28   -119263.85    42888.976   -162152.82     12277.08    -174429.9   -74.744111   -1.3810897     -372.679    -183.7772    -183.7772    117.45178 
  230000    54000    298.89636   -163.82015    530583.92   -119260.94    43021.461    -162282.4    12215.688   -174498.09   -277.98212    96.620802   -310.09914   -36.123216   -36.123216   -130.04487 
  231000    55000    297.77066   -146.68848    531461.87   -119517.18    42859.434   -162376.61    12128.908   -174505.52    -46.14242   -189.13698   -204.78605   -36.441651   -36.441651    109.39808 
  232000    56000    295.92528    53.928587    533412.02   -119887.65     42593.82   -162481.47    12318.185   -174799.65    22.981898   -29.685181    168.48904   -85.579264   -85.579264   -64.009494 
  233000    57000    297.02225    33.654543    532763.83   -119105.66    42751.711   -161857.37    12226.915   -174084.28    197.83711   -68.075989   -28.797489   -179.69818   -179.69818   -163.87949 
  234000    58000     298.3786   -126.16851     532948.3    -119715.8    42946.938   -162662.74    12349.024   -175011.76   -383.37393    -37.98997     42.85838    194.59122    194.59122    -18.92398 
  235000    59000    297.23796   -89.104815    536048.26   -119561.44     42782.76    -162344.2    12275.239   -174619.44    14.452598   -133.45074    -148.3163   -80.447768   -80.447768   -118.56243 
  236000    60000    298.33178    44.691482    531373.68   -119240.05    42940.198   -162180.25    12205.811   -174386.06    65.684859     292.7414   -224.35181   -83.817009   -83.817009   -90.555019 
  237000    61000    298.03864    10.742851     530848.6   -119526.96    42898.005   -162424.97    12083.203   -174508.17   -199.71072    224.12289    7.8163788   -47.479402   -47.479402    37.337492 
  238000    62000    300.32469    98.852683     533333.8   -118820.24    43227.047   -162047.28    12303.169   -174350.45   -146.05072    357.89305    84.715723   -142.20275   -142.20275    133.45619 
  239000    63000    298.86291    43.758103    533259.31   -118969.02    43016.646   -161985.67    12354.242   -174339.91    39.976074    228.77475   -137.47652   -310.42159   -310.42159    14.927297 
  240000    64000    297.78685    123.81444    533143.25   -119588.62    42861.764   -162450.38    12152.537   -174602.92   -122.02007    230.54417    262.91922   -18.257292   -18.257292   -87.904029 
  241000    65000    299.48315   -226.01403    531573.27   -119429.09     43105.92   -162535.01    12195.028   -174730.04   -358.55174   -172.66185   -146.82849   -17.465018   -17.465018    68.773096 
  242000    66000    298.93113   -35.763393     534684.5   -118961.71    43026.465   -161988.17    12282.625    -174270.8    51.249311   -247.97611    89.436622   -3.2268201   -3.2268201    26.365569 
  243000    67000    297.83672    -24.71503    531866.09   -119631.62    42868.942   -162500.56    12415.331   -174915.89    160.10082    119.15569    -353.4016   -156.13625   -156.13625    102.36572 
  244000    68000    296.84853    107.17555    531230.47   -119698.08    42726.708   -162424.78    12343.374   -174768.16    191.92403   0.47795024    129.12468   -108.27299   -108.27299    27.723533 
  245000    69000    298.09894    27.484514    530665.62   -119524.68    42906.684   -162431.36     12228.29   -174659.65   -171.87229    313.48904   -59.163213   -129.29404   -129.29404   -145.40294 
  246000    70000    297.20309    113.90814    531329.46   -119580.51    42777.741   -162358.25     12322.25   -174680.51    218.11293   -308.93181    432.54331    45.554096    45.554096    57.068493 
  247000    71000    298.18721   -184.05976     534208.6   -119060.72     42919.39   -161980.11    12217.241   -174197.35   -385.36951   -74.859525   -91.950249   -309.50445   -309.50445   -35.298221 
  248000    72000    298.63871   -15.750636    534724.43   -119322.87    42984.375   -162307.25    12197.706   -174504.95   -35.718858   -155.53962    144.00657   -22.708432   -22.708432    83.329083 
  249000    73000    298.56036   -72.874704    532329.81   -119717.76    42973.098   -162690.86    12240.212   -174931.07   -144.71054     61.29006   -135.20363    77.617576    77.617576    229.31484 
  250000    74000    298.45928    20.503666    533395.61   -119701.09     42958.55   -162659.64    12228.287   -174887.93   -27.442257    197.32177   -108.36852   -115.45743   -115.45743   -77.437899 
  251000    75000    298.68172    38.887301    529973.06   -119595.23    42990.566    -162585.8    12290.912   -174876.71     7.054744   -114.09068    223.69784    13.803598    13.803598    211.08736 
  252000    76000     300.3768    11.551205    531572.24   -119124.56    43234.547   -162359.11    12347.308   -174706.42   -47.966601    174.56462     -91.9444   -65.067806   -65.067806   -111.23383 
  253000    77000    296.96552    -179.7871    532089.12   -119388.93    42743.547   -162132.48    12362.051   -174494.53   -138.98595   -146.69731   -253.67803   -191.67429   -191.67429    -55.77675 
  254000    78000    298.75087    37.546574     533060.5   -118960.69    43000.519   -161961.21    12266.695    -174227.9    104.23121   -1.7964478    10.204956    25.203966    25.203966   -82.006458 
  255000    79000    296.72124   -265.89551    531201.18   -119427.37    42708.387   -162135.76    12254.219   -174389.98   -396.98429   -307.34607   -93.356182    60.120167    60.120167    70.447725 
  256000    80000    297.31074   -35.627031    533555.69   -119285.44    42793.235   -162078.68    12252.321      -174331    218.57914   -301.34448   -24.115755    110.63413    110.63413   -167.99913 
  257000    81000    299.08518    93.954741    532986.29   -119439.43    43048.639   -162488.07    12226.314   -174714.39    84.233978   -66.447874    264.07812    119.96751    119.96751    154.55042 
  258000    82000    300.03076   -233.57709    534227.97   -118558.03    43184.739   -161742.77    12439.739   -174182.51   -439.93748    16.157329   -276.95112   -59.350774   -59.350774    74.452637 
  259000    83000     298.9361   -67.321256    530096.68    -119679.9    43027.181   -162707.09    12180.528   -174887.61   -71.284281   -353.54456    222.86507    33.509109    33.509109   -318.24353 
  260000    84000     297.9785    241.45847    531788.08   -119756.85    42889.349    -162646.2    12144.787   -174790.99    150.10702    238.82238    335.44602      42.3287      42.3287   -142.40885 
  261000    85000    297.58242   -10.929752    533580.29   -119344.55     42832.34   -162176.89    12313.289   -174490.18   -280.12877    161.64741    85.692106    167.21758    167.21758    95.353249 
  262000    86000     298.7934   -200.30371    532156.45   -119613.29    43006.642   -162619.94    12257.024   -174876.96   -432.27523   -135.10097   -33.534916   -109.39435   -109.39435     156.4893 
  263000    87000    299.60356    161.86727    530811.91   -119386.81    43123.251   -162510.06    12303.113   -174813.17    286.61249    111.44194    87.547393    -17.64983    -17.64983    95.393878 
  264000    88000    298.62717    140.31783    532570.37   -118901.93    42982.716   -161884.64    12279.091   -174163.73    89.184871    -149.0346    480.80322   -140.20352   -140.20352    147.11762 
  265000    89000    297.94004   -36.470639    528738.26   -119779.68    42883.814    -162663.5    12435.033   -175098.53   -100.83987   -39.504751    30.932702    -9.007109    -9.007109    173.92226 
  266000    90000    298.92761   -153.89398     533784.4   -119203.71    43025.959   -162229.67    12317.582   -174547.25   -256.19804   -86.857499    -118.6264    148.84294    148.84294    159.89832 
  267000    91000    295.20697   -5.4512589    530211.19   -119480.11    42490.431   -161970.55    12229.528   -174200.07   -348.14868    229.67474    102.12016   -93.595591   -93.595591    23.386954 
  268000    92000    296.54053   -27.879604    530784.49   -119699.92    42682.375   -162382.29    12310.986   -174693.28   -96.135516   -26.982019    39.478723    26.618093    26.618093    -70.20826 
  269000    93000    298.20086   -163.08608    530674.95   -119809.85    42921.355   -162731.21    12310.384   -175041.59   -166.20981      -158.31   -164.73842   -136.03912   -136.03912    147.93241 
  270000    94000    296.67495    126.92835     530940.9   -119407.08    42701.723   -162108.81     12244.21   -174353.02    260.62043    151.75214   -31.587515   -49.867602   -49.867602   -394.11299 
  271000    95000    297.62423   -31.065163    531047.03   -119163.41    42838.357   -162001.77    12424.694   -174426.46   -14.012621   -150.70861     71.52574    258.42516    258.42516     255.1124 
  272000    96000    297.44764    117.06723    529482.66   -119617.17     42812.94   -162430.11    12287.305   -174717.42    57.466504     -145.869    439.60419   -72.745859   -72.745859    140.36946 
  273000    97000    295.30363    148.35232    532210.44   -119811.37    42504.344   -162315.71    12231.954   -174547.67    130.89703   -81.674275    395.83421   -19.504964   -19.504964   -146.69802 
  274000    98000     298.0304     268.2387    533622.23   -119182.53    42896.819   -162079.35    12302.983   -174382.33    500.65312   -290.34583    594.40881   -13.472874   -13.472874   -250.66089 
  275000    99000    295.85438    -31.14822    532795.02   -119627.59    42583.616    -162211.2    12299.184   -174510.39   -42.435691    -266.9465    215.93753     86.95967     86.95967    10.769509 
  276000   100000    300.16136    56.082841     528568.5   -119126.34    43203.538   -162329.88    12342.691   -174672.57    328.88493   -216.43617    55.799761    1.6458816    1.6458816    37.796368 
  277000   101000    298.05911   -54.050173    532869.61   -119209.97    42900.952   -162110.93    12356.617   -174467.54   -137.59505   -104.19912    79.643655    142.67631    142.67631   -156.04205 
  278000   102000    298.89203    55.540804     530349.8   -119409.59    43020.838   -162430.43    12205.959   -174636.39    234.43421    176.53181    -244.3436   -172.41017   -172.41017   -42.243852 
  279000   103000    300.37004   -102.06534    532545.51   -119130.79    43233.574   -162364.36    12220.083   -174584.44   -235.07663   -29.082576   -42.036826    158.88226    158.88226    166.86153 
  280000   104000    298.69186   -231.74394    533197.76   -119433.73    42992.026   -162425.75    12308.712   -174734.47   -218.84919   -134.90191   -341.48071    83.541267    83.541267    111.10588 
  281000   105000    297.27598   -78.970878     533750.4   -119455.52    42788.233   -162243.76    12311.748    -174555.5    -206.8897   -75.313888    45.290957   -188.58067   -188.58067    52.979299 
  282000   106000    298.77527    32.180281    533308.98   -118932.23    43004.032   -161936.26    12341.214   -174277.47    85.124603   -31.242651    42.658889    208.46963    208.46963   -130.97201 
  283000   107000    299.82064   -164.04572    532427.99   -119236.68    43154.496   -162391.17    12252.709   -174643.88   -100.80626   -267.24911   -124.08179    245.43544    245.43544    1.8931422 
  284000   108000    296.48821    162.99083    531874.39   -119566.27    42674.846   -162241.12    12154.758   -174395.88    253.63428     97.17097    138.16725    122.44823    122.44823    16.755592 
  285000   109000    299.61804    141.76831    531733.48    -119152.4    43125.335   -162277.73    12437.643   -174715.37    361.49469    242.91387   -179.10364    49.986064    49.986064    252.39409 
  286000   110000    298.65273    171.98665     531449.9   -119316.87    42986.394   -162303.27     12420.13    -174723.4     76.30066    196.34801    243.31127   -74.698488   -74.698488   -193.19142 
  287000   111000    297.53575    142.26967    533273.81   -119620.41    42825.622   -162446.03    12344.834   -174790.87    192.15172   -167.52227    402.17957    41.554221    41.554221    -42.96164 
  288000   112000    297.54425    112.83854    530499.64   -119508.92    42826.845   -162335.76    12290.451   -174626.21    74.561719   -17.518834    281.47274    18.260699    18.260699   -483.91517 
  289000   113000    298.06396   -77.929548    531368.95   -119294.14     42901.65   -162195.79    12250.988   -174446.78   -78.010488    53.815522   -209.59368   -273.22074   -273.22074    128.02725 
  290000   114000    297.59316     61.16849     533832.9   -119325.94    42833.885   -162159.83    12324.124   -174483.95    1.0582445    166.38023    16.066996    142.73711    142.73711   -11.433145 
  291000   115000    297.77599    158.63574    533123.19   -119640.63    42860.201   -162500.83    12128.688   -174629.52    152.86568   -81.974752    405.01628    297.71717    297.71717   -177.90999 
  292000   116000    297.87343   -99.904552    530490.33   -119784.05    42874.226   -162658.27    12133.142   -174791.42   -382.58196    113.70685   -30.838551    178.03471    178.03471   -269.74754 
  293000   117000    298.39884    210.58962    531815.78   -119599.78    42949.851   -162549.63    12165.682   -174715.31    259.47279    156.16573    216.13033     53.87871     53.87871    44.707631 
  294000   118000    299.64934    74.149954    530763.26   -119044.39    43129.841   -162174.23    12291.601   -174465.83    190.57988   -341.93668    373.80667   -77.208677   -77.208677   -140.04877 
  295000   119000    297.11595    9.1467136    533268.79    -119588.6    42765.199    -162353.8    12278.473   -174632.28     305.3283   -495.26486    217.37671   -173.26146   -173.26146   -200.95501 
