LAMMPS (9 Nov 2016)
OMP_NUM_THREADS environment is not set. Defaulting to 1 thread. (../comm.cpp:90)
  using 1 OpenMP thread(s) per MPI task
Reading restart file ...
  restart file = 9 Nov 2016, LAMMPS = 9 Nov 2016
  orthogonal box = (-26.1649 -29.7974 -39.5468) to (54.8822 51.2497 41.5003)
  2 by 2 by 1 MPI processor grid
  48006 atoms
  32000 bonds
  16000 angles
Finding 1-2 1-3 1-4 neighbors ...
 Special bond factors lj:   0          0          0         
 Special bond factors coul: 0          0          0         
  2 = max # of 1-2 neighbors
  1 = max # of 1-3 neighbors
  1 = max # of 1-4 neighbors
  2 = max # of special neighbors
Resetting global fix info from restart file:
  fix style: npt, fix ID: 2
PPPM initialization ...
WARNING: Using 12-bit tables for long-range coulomb (../kspace.cpp:317)
  G vector (1/distance) = 0.297791
  grid = 64 64 64
  stencil order = 5
  estimated absolute RMS force accuracy = 0.00436436
  estimated relative force accuracy = 1.31431e-05
  using double precision FFTs
  3d grid and FFT values/proc = 107991 65536
All restart file global fix info was re-assigned
Neighbor list info ...
  1 neighbor list requests
  update every 1 steps, delay 10 steps, check yes
  max neighbors/atom: 2000, page size: 100000
  master list distance cutoff = 14
  ghost atom cutoff = 14
  binsize = 7, bins = 12 12 12
Setting up Verlet run ...
  Unit style    : real
  Current step  : 270000
  Time step     : 1
Memory usage per processor = 32.0587 Mbytes
Step Elapsed Temp Press Volume TotEng KinEng PotEng E_mol E_pair Pxx Pyy Pzz Pxz Pxz Pyz 
  270000        0    298.26403  -0.58573513    532369.07   -91738.929     42679.73   -134418.66    12333.734   -146752.39    7.4933571    38.238765   -47.489327    149.28922    149.28922   -34.555453 
  271000     1000    296.59146    15.054038    529113.73   -91922.597    42440.395   -134362.99    12376.732   -146739.72    199.18418    51.950175   -205.97224    5.0392497    5.0392497    43.989146 
  272000     2000    298.92536    -92.55915    528621.91    -91249.11    42774.362   -134023.47    12286.893   -146310.37   -50.174478   -120.59234   -106.91063   -99.432492   -99.432492    105.85205 
  273000     3000    300.08067    45.325915    530267.32   -91422.146    42939.679   -134361.82    12147.348   -146509.17    -157.2781    44.302369    248.95347   -45.045768   -45.045768    129.48523 
  274000     4000    298.18121    248.05536     529826.9   -91858.278    42667.878   -134526.16    12195.357   -146721.51     299.5848   -24.016287    468.59756    -31.57768    -31.57768    134.70368 
  275000     5000    297.80888    260.58758    530518.49   -91409.851      42614.6   -134024.45    12294.503   -146318.95    493.23167    74.717804    213.81327   -34.336069   -34.336069    171.00933 
  276000     6000    296.09209    58.800611     531231.6   -92053.131    42368.938   -134422.07     12279.88   -146701.95    48.687723   -100.77494    228.48905   -10.336019   -10.336019   -43.624667 
  277000     7000    297.68753    38.268099    528417.16   -92055.721    42597.235   -134652.96    12376.633   -147029.59    11.880866    15.654327    87.269104   -214.29316   -214.29316    213.40323 
  278000     8000    297.10253   -86.716483    528570.73   -91551.747    42513.526   -134065.27    12364.079   -146429.35    53.638394    112.91861   -426.70646   -198.88795   -198.88795   -56.132979 
  279000     9000    296.95824   -306.78264    529038.55    -92269.77    42492.879   -134762.65    12407.877   -147170.53   -168.64896   -284.12979   -467.56918    154.57803    154.57803    12.335667 
  280000    10000    297.78227   -133.09937    529227.78   -91983.037    42610.792   -134593.83    12320.133   -146913.96   -135.07184   -308.32329     44.09703   -132.69903   -132.69903    239.35683 
  281000    11000    295.66424    306.08911    526742.27   -91995.107    42307.716   -134302.82    12476.438   -146779.26    691.77385    34.391433    192.10204   -153.12823   -153.12823    72.919133 
  282000    12000    297.38035   -13.227231    530255.16   -91743.488     42553.28   -134296.77    12219.336    -146516.1     179.7426    114.95004   -334.37433   -127.00164   -127.00164   -32.565787 
  283000    13000    296.85387     47.95059    528493.73   -92092.972    42477.944   -134570.92    12162.966   -146733.88    184.01086    15.293636    -55.45273    83.883406    83.883406   -77.232826 
  284000    14000     298.5741     70.70406    532519.75   -91607.505    42724.098    -134331.6    12316.484   -146648.09   -110.75557    166.68935     156.1784   -176.79353   -176.79353   -355.31531 
  285000    15000    298.19078    139.56034    531085.97   -91253.119    42669.248   -133922.37    12569.563   -146491.93    105.71915    167.92095    145.04091   -178.96024   -178.96024    22.365469 
  286000    16000    296.90217   -25.704882    529482.13   -92029.231    42484.856   -134514.09    12559.816    -147073.9    117.17524   -106.36262   -87.927268   -165.15433   -165.15433    123.15514 
  287000    17000    298.42094   -53.563404    530568.76   -91271.176    42702.182   -133973.36    12407.043    -146380.4    208.25582   -201.00925   -167.93679    76.149874    76.149874    242.08779 
  288000    18000    300.00969    94.474803    527352.01   -91764.803    42929.522   -134694.32     12396.14   -147090.47    228.21571    179.66308   -124.45438     91.99912     91.99912    34.705382 
  289000    19000    298.38042    12.745256    528713.63   -91920.983    42696.384   -134617.37    12471.928    -147089.3    295.82279   -77.824533   -179.76249   0.81806729   0.81806729    -178.6953 
  290000    20000    296.42689    20.133271    527917.16   -92057.921    42416.846   -134474.77    12533.938    -147008.7    104.41864   -216.58153     172.5627    26.346415    26.346415    48.959522 
  291000    21000    299.09454    154.09763    527255.15   -91769.358     42798.57   -134567.93    12396.341   -146964.27    342.85678    74.744629    44.691475    64.992448    64.992448    139.32815 
  292000    22000    298.13878   -146.09863    531294.34   -91599.818    42661.807   -134261.63    12465.216   -146726.84   -133.71876    4.0878296   -308.66496    247.82302    247.82302   -158.23452 
  293000    23000    298.80883    53.482061    527963.12    -92023.78    42757.687   -134781.47    12366.642   -147148.11    74.888246    54.523923    31.034014    95.096056    95.096056   -226.42437 
  294000    24000    296.22751    472.38151    528997.84   -91650.064    42388.316   -134038.38    12281.629   -146320.01    353.03727     700.3862    363.72105    12.332625    12.332625   -90.188883 
  295000    25000    297.83896    -26.72394    529470.45   -92196.016    42618.905   -134814.92    12556.705   -147371.63   -14.638619    105.62271   -171.15591   -46.747593   -46.747593    76.438596 
  296000    26000    298.06871    240.71481    529356.56   -91735.843    42651.781   -134387.62    12303.468   -146691.09    298.63122    196.34337    227.16986   -40.978399   -40.978399   -261.23638 
  297000    27000    298.39951   -44.219243    528726.13    -91813.91    42699.115   -134513.03    12468.854   -146981.88   -32.392794   -122.35305    22.088114    160.76958    160.76958    74.946166 
  298000    28000    298.05044    -171.1344    529637.34   -91957.711    42649.166   -134606.88    12469.652   -147076.53   -96.992801   -197.45199   -218.95841   -114.09994   -114.09994    147.38774 
  299000    29000    298.90235    61.552222    527057.88   -91799.229    42771.069    -134570.3    12540.818   -147111.12    36.600578    138.81255    9.2435388    60.779603    60.779603   -75.484615 
  300000    30000    299.07612    171.09216    528036.78   -91497.298    42795.935   -134293.23    12406.146   -146699.38   -29.580336    363.11473    179.74207    50.140082    50.140082   -85.171858 
  301000    31000    296.86622   -46.806703    527571.01   -92032.548    42479.711   -134512.26    12382.053   -146894.31   -40.335255    259.89941   -359.98427    49.497525    49.497525    39.475767 
  302000    32000    296.86604   -9.7927005    529236.58   -91504.996    42479.685   -133984.68    12326.964   -146311.65    16.391421    337.34982   -383.11934    229.93906    229.93906   -26.203503 
  303000    33000    295.82524    38.751783    527391.58   -92057.247    42330.754      -134388     12490.73   -146878.73    298.57581   -221.53333    39.212874   -34.549394   -34.549394   -94.920179 
  304000    34000    297.22247   -83.663272    526894.57   -92131.091    42530.689   -134661.78    12403.512   -147065.29   -95.119586   -194.16203    38.291802   -62.595574   -62.595574   -12.148511 
  305000    35000    295.82009   -18.444951    527487.86   -92157.328    42330.016   -134487.34    12580.969   -147068.31   -213.30209    -5.500805    163.46804   -11.885005   -11.885005    -71.57726 
  306000    36000    297.09509    203.05182    525502.36    -91988.54    42512.461      -134501    12522.775   -147023.78    283.77751    96.484421    228.89354   -113.84069   -113.84069   -108.66288 
  307000    37000     297.2874   -113.88964    529903.48   -91782.399     42539.98   -134322.38    12421.677   -146744.06    219.29408   -76.644963   -484.31803    24.178416    24.178416    7.0673325 
  308000    38000     299.0976   -158.08895    527189.83    -91914.38    42799.008   -134713.39    12297.071   -147010.46    -97.18351   -325.77697   -51.306358    13.922765    13.922765   -83.984173 
  309000    39000    299.18521     46.91829    530478.13    -91922.79    42811.544   -134734.33    12284.897   -147019.23    104.46361    253.62615   -217.33488   -134.97548   -134.97548    4.9901855 
  310000    40000    298.27171    38.190907    532441.84   -91437.557    42680.829   -134118.39    12569.993   -146688.38   -15.382247   -85.247621    215.20259    99.282755    99.282755   -140.09559 
  311000    41000    298.48377   -28.631837    527931.75     -91664.9    42711.173   -134376.07    12405.993   -146782.07    70.446331   -248.70823    92.366383   -19.799206   -19.799206    203.30304 
  312000    42000    299.52681    203.15392     530373.5   -90869.277    42860.426    -133729.7    12558.019   -146287.72   -148.90567    70.118527    688.24891   -165.47814   -165.47814    52.716276 
  313000    43000    298.09555    157.43135    529697.76   -92177.855    42655.621   -134833.48    12248.798   -147082.27   -75.454774    388.23293     159.5159   -20.940294   -20.940294   -5.6297595 
  314000    44000     298.6894   -235.76098    529074.06   -91804.461    42740.598   -134545.06    12445.629   -146990.69    103.22865   -629.40909   -181.10251      22.1855      22.1855    -106.8367 
  315000    45000    296.98519    85.754082    528790.76   -92273.776    42496.735   -134770.51    12421.592    -147192.1     281.0993    63.463596   -87.300655    136.38001    136.38001   -82.409331 
  316000    46000    297.43259   -13.727338    529810.09   -91871.901    42560.755   -134432.66    12375.835   -146808.49    182.64236   -49.641706   -174.18267   -126.43912   -126.43912   -79.097302 
  317000    47000    299.80019     55.77374    529661.02   -91899.451    42899.544   -134798.99    12594.226   -147393.22    296.92355   -25.043953   -104.55838    288.26213    288.26213   -18.505552 
  318000    48000    298.01488    138.82911    527666.02   -91762.861    42644.078   -134406.94    12591.758    -146998.7     277.2576     279.2021   -139.97237   -73.248363   -73.248363   -196.70126 
  319000    49000    298.05125     49.51971    529786.78   -92160.564    42649.282   -134809.85    12451.653    -147261.5    187.34081   -195.13031    156.34863    -8.067854    -8.067854   -87.260656 
  320000    50000    299.59599    170.65357    528333.26   -91867.729    42870.324   -134738.05    12283.712   -147021.77    52.375106    -38.02532    497.61091     98.23787     98.23787   -47.159541 
  321000    51000     296.3024   -59.212585    528105.05   -92158.452    42399.033   -134557.48    12489.174   -147046.66    31.728742   -190.65692   -18.709582    15.899592    15.899592   -211.64928 
  322000    52000    298.75619    66.382874    526241.41   -91413.053    42750.154   -134163.21    12484.254   -146647.46   -9.3574492    -39.56256    248.06863    221.43977    221.43977   -91.797538 
  323000    53000    300.07741    61.998881    529346.01   -91726.183    42939.213    -134665.4    12299.105    -146964.5   -156.38108    299.05451    43.323214   -60.242204   -60.242204    47.204874 
  324000    54000    296.63948   -53.060654    528763.01   -92066.211    42447.266   -134513.48    12499.994   -147013.47    119.08353   -266.91255   -11.352941    217.47469    217.47469    -151.8173 
  325000    55000    297.90542    283.72394    525604.53   -92031.038    42628.414   -134659.45    12437.341   -147096.79     341.4353    221.06538    288.67112     90.61209     90.61209   -355.01954 
  326000    56000    298.63479     432.8668    527068.23   -91906.049    42732.783   -134638.83    12478.092   -147116.92    347.80189    516.49356    434.30497   -81.464608   -81.464608    60.345396 
  327000    57000    299.01708   -244.18578    528591.27   -91548.055    42787.486   -134335.54    12652.988   -146988.53   -129.55866   -209.94186   -393.05683    95.248932    95.248932    143.39041 
  328000    58000    299.04393    20.673951    528140.91   -91565.135    42791.329   -134356.46    12392.372   -146748.84   -152.65898     342.7462   -128.06536    111.37348    111.37348    -61.55025 
  329000    59000    297.61037    172.27751    528965.36   -91882.829    42586.195   -134469.02    12596.819   -147065.84     175.7176    107.53406    233.58086    365.20155    365.20155   -1.0069369 
  330000    60000    298.99502   -133.69017    527216.83     -91831.3     42784.33   -134615.63    12449.311   -147064.94   -438.98961    27.374283    10.544813     62.04635     62.04635    -84.43697 
  331000    61000    296.32105   -281.96981    530206.46   -92001.313    42401.701   -134403.01    12424.614   -146827.63   -378.52842   -128.52685   -338.85416    270.58771    270.58771    12.615081 
  332000    62000     298.0863    106.98412    527313.09   -91644.465    42654.298   -134298.76    12542.352   -146841.12    180.22344    96.233763     44.49515    154.85674    154.85674   -46.780424 
  333000    63000    298.66691    152.59577    531802.84   -91411.271    42737.379   -134148.65    12522.524   -146671.17   -16.549882    57.588745    416.74845    216.94108    216.94108   -110.92869 
  334000    64000    297.42799   -77.029133    527443.49   -92124.937    42560.098   -134685.03    12565.266    -147250.3   -173.83724   -15.433059   -41.817098    35.915569    35.915569    32.002747 
  335000    65000    297.99078   -38.409733    528048.98   -91760.292     42640.63   -134400.92    12520.101   -146921.02   -38.362065   -125.18292    48.315783    43.734862    43.734862    117.71893 
  336000    66000    297.71043   -25.701203    529858.83   -91904.516    42600.513   -134505.03    12506.648   -147011.68   -196.20628   -50.521117    169.62379    58.192593    58.192593   -145.11637 
  337000    67000    299.25372    52.770311       528718    -91828.14    42821.348   -134649.49    12427.397   -147076.88   -76.602246      164.928    69.985182   -42.208486   -42.208486    -239.2133 
  338000    68000    298.77168    166.17705    529550.19   -91738.233    42752.371    -134490.6    12452.741   -146943.34   -18.378524    295.31868      221.591   -167.99679   -167.99679     11.78232 
  339000    69000    297.39001    218.01292    528135.18   -92135.193    42554.663   -134689.86     12366.14      -147056    50.775963    343.03421    260.22858    126.15333    126.15333      110.875 
  340000    70000    297.78103    77.175075    528256.47   -91805.378    42610.615   -134415.99    12445.678   -146861.67    46.709454   -16.983213    201.79898   -19.353817   -19.353817   -72.257285 
  341000    71000    298.56605    17.394042    527451.06   -91705.706    42722.947   -134428.65    12354.443    -146783.1    70.640966   -28.760872    10.302033   -175.54214   -175.54214     25.13004 
  342000    72000    296.91195    129.10051    530582.43   -91561.496    42486.255   -134047.75    12259.777   -146307.53   -150.73564    269.37233    268.66483   -64.511603   -64.511603    119.54623 
  343000    73000    297.32973    38.084713    531662.95   -92154.545    42546.037   -134700.58    12373.123   -147073.71    -177.8652     117.2304    174.88894    74.522744    74.522744   -10.616338 
  344000    74000    298.86775    163.41927    527832.95   -91794.753    42766.118   -134560.87    12386.322   -146947.19    462.46326     36.50324   -8.7086962    34.926844    34.926844    123.51189 
  345000    75000    299.29311   -107.77455    529707.21   -91650.561    42826.984   -134477.55    12432.098   -146909.64   -82.524885   -313.66678    72.868027    -53.50006    -53.50006    70.430849 
  346000    76000    296.37246   -166.29586    528852.09   -92297.893    42409.058   -134706.95    12343.139   -147050.09   -28.425831   -125.12423    -345.3375    153.61045    153.61045    151.03572 
  347000    77000    298.24509    173.67188    529664.37   -91733.664    42677.019   -134410.68    12240.625   -146651.31    88.663151    300.91006    131.44243    -24.37163    -24.37163    35.721957 
  348000    78000    297.05994   -92.977333    529133.98   -92110.825    42507.432   -134618.26    12450.559   -147068.82   -57.541192   -159.82854   -61.562271   -267.82978   -267.82978    37.834376 
  349000    79000     299.1378    2.3574404    529225.67   -91626.476    42804.761   -134431.24    12335.869   -146767.11   -228.21472   -71.640825    306.92787    129.40963    129.40963    47.027597 
  350000    80000    299.22632    36.410878    529671.83   -91411.673    42817.427    -134229.1    12321.316   -146550.42   -193.80936    127.59565    175.44635   -111.14798   -111.14798    155.79102 
  351000    81000    296.40538    26.794578    529083.97   -91827.394    42413.768   -134241.16    12395.329   -146636.49    118.68675   -130.84398    92.540971   -3.8400541   -3.8400541   -2.1334871 
  352000    82000    296.65421    8.3390301    529307.21   -91630.083    42449.375   -134079.46    12545.348   -146624.81    43.337898    115.07924   -133.40004    34.036338    34.036338   -47.756176 
  353000    83000    297.77358   -272.42794    526504.75   -92039.961    42609.549   -134649.51    12332.195   -146981.71    60.973179    -321.5464   -556.71062    127.91253    127.91253    12.833128 
  354000    84000    298.06528   -52.556904    529338.89   -91730.023     42651.29   -134381.31    12466.401   -146847.71   -151.44246   -49.541416    43.313163    106.51006    106.51006    6.7399058 
  355000    85000    298.86187   -113.76305    526858.75   -92093.683    42765.277   -134858.96    12355.972   -147214.93   -197.71365   -168.96034    25.384847    97.914445    97.914445   -135.15807 
  356000    86000    298.91845    148.28084    530422.76   -91613.219    42773.373   -134386.59    12534.195   -146920.79   -3.1597576    184.00826      263.994    418.33946    418.33946    3.7941522 
  357000    87000    297.27543   -5.4422523    526479.64    -92128.98    42538.267   -134667.25    12552.353    -147219.6    60.853117    174.30881   -251.48869    172.26284    172.26284    166.79297 
  358000    88000     295.9449   -97.277572     526803.8   -92014.115    42347.876   -134361.99    12505.617   -146867.61   -185.58579    237.44338   -343.69031   -42.092436   -42.092436     32.75029 
  359000    89000    298.29357    79.453257    529692.15   -91687.011    42683.957   -134370.97    12356.545   -146727.51    184.42728   -113.41235    167.34484    76.686553    76.686553    246.14891 
  360000    90000    296.86724    55.828873    527831.87   -92011.135    42479.858   -134490.99    12411.298   -146902.29    82.156433   -182.92556    268.25574   -151.71507   -151.71507   -88.797924 
  361000    91000    297.33311   -9.3716324    530626.84   -91707.295     42546.52   -134253.81    12414.703   -146668.52    132.26327   -274.64812    114.26995    229.56773    229.56773    303.73313 
  362000    92000    298.19319    56.135208    529099.27   -91838.519    42669.593   -134508.11    12313.787    -146821.9   -172.89962    47.787092    293.51815   -37.374586   -37.374586   -44.066214 
  363000    93000    299.50152   -147.92027     528610.1   -91812.145    42856.807   -134668.95     12361.25    -147030.2   -123.64274   -255.60189   -64.516173   -61.071555   -61.071555      103.022 
  364000    94000    296.73876   -32.238458    527910.39   -92026.262    42461.473   -134487.73    12257.244   -146744.98    167.82782   -128.24575   -136.29744   -135.43704   -135.43704    102.60508 
  365000    95000    297.71088   -7.1929704    527592.68   -92246.271    42600.577   -134846.85    12324.126   -147170.97   -164.22435   -75.936424    218.58187    112.44386    112.44386   -210.37235 
  366000    96000    298.48785    28.562951    528555.32   -91893.774    42711.756   -134605.53    12651.427   -147256.96   -125.20944    41.622413    169.27588   -114.67906   -114.67906    -18.97225 
  367000    97000    296.95714    8.3887347    526570.22    -92157.01    42492.722   -134649.73    12416.404   -147066.14   -371.79354   -22.790301    419.75004    11.232928    11.232928   -40.181751 
  368000    98000    297.93109    48.740931     529954.2   -91568.885    42632.087   -134200.97    12465.845   -146666.82    247.17041    84.403836   -185.35146   -51.143139   -51.143139    -10.92009 
  369000    99000      299.037   -202.78577    528604.72   -91834.978    42790.337   -134625.31    12456.831   -147082.15   -182.98064   -238.77139   -186.60528   -37.964157   -37.964157   -62.788184 
  370000   100000    298.66137   -14.460296    527765.49     -91843.8    42736.586   -134580.39    12618.663   -147199.05    10.775617    22.712602   -76.869108    227.18284    227.18284    42.421622 
  371000   101000     296.4556     58.48154    529061.12   -91929.741    42420.954    -134350.7    12527.706    -146878.4    24.629555   -52.345782    203.16085   -61.839768   -61.839768   -23.692176 
  372000   102000    299.44555   -153.38589    529491.38   -91692.991    42848.798   -134541.79     12630.52   -147172.31   -295.13699   -241.79215    76.771488   -85.279866   -85.279866    81.547846 
  373000   103000    296.23844   -141.30272    527468.73   -92353.356     42389.88   -134743.24    12446.405   -147189.64    38.734892   -258.80071   -203.84234    38.559997    38.559997    189.14045 
  374000   104000    297.48343    29.161635    527674.11    -91994.88     42568.03   -134562.91    12514.192    -147077.1   -90.181629   -24.866536    202.53307   -17.639887   -17.639887    133.09709 
  375000   105000    297.35214   -164.81121    528818.82   -92012.198    42549.243   -134561.44    12492.088   -147053.53   -270.99723    -75.25859   -148.17783   -315.92154   -315.92154   -129.05067 
  376000   106000    297.59438    58.882867    527483.75   -92344.857    42583.906   -134928.76    12550.513   -147479.28   -11.165337   -193.24892    381.06286   -117.96675   -117.96675    88.288884 
  377000   107000    297.22711   -61.612819    527244.15   -92181.191    42531.353   -134712.54    12579.448   -147291.99    370.64007   -294.71039   -260.76814    146.24202    146.24202    255.18453 
  378000   108000     300.2295    219.35793    526363.68   -91642.343    42960.975   -134603.32    12451.415   -147054.73    140.46586    474.88714    42.720796    133.61148    133.61148   -199.09548 
  379000   109000     298.2846    184.43871    526951.72   -91821.352    42682.673   -134504.02    12644.772    -147148.8   -3.6975121     402.3948    154.61884   -159.84414   -159.84414    109.21553 
  380000   110000    301.06951    242.26424     527761.3   -91242.622    43081.176    -134323.8    12584.354   -146908.15    193.56957    150.02623    383.19692    -93.37759    -93.37759   -27.999893 
  381000   111000    296.67588    27.666353    530328.76   -92073.836    42452.475   -134526.31    12522.155   -147048.47    20.933959   -107.16414    169.22924    84.492147    84.492147     28.41043 
  382000   112000    296.78634   -126.00498    528576.35   -92066.763    42468.281   -134535.04    12571.089   -147106.13   -132.97812    -290.9503    45.913464   -65.139412   -65.139412   -33.257755 
  383000   113000    296.95074    219.86701     527359.2   -92013.606    42491.805   -134505.41    12692.266   -147197.68    280.72282    226.57716    152.30105    162.70223    162.70223    74.381712 
  384000   114000    297.51916    71.031263    531401.67   -91869.985    42573.144   -134443.13    12654.842   -147097.97    379.81157   -105.06381   -61.653977   -155.01881   -155.01881    -167.9587 
  385000   115000    298.59828    42.873659    528103.88     -91664.1    42727.558   -134391.66    12659.546    -147051.2     177.1934   -303.88532     255.3129    30.661926    30.661926    88.532104 
  386000   116000    296.16177    41.858204    527859.74   -92204.415    42378.909   -134583.32    12512.376    -147095.7    27.116253   -79.749887    178.20825    7.8918884    7.8918884    44.891492 
  387000   117000    298.46577    62.797375    525813.99   -91933.001    42708.597    -134641.6    12520.508   -147162.11    55.609099    143.92076   -11.137732    45.568886    45.568886   -128.18997 
  388000   118000    298.28162   -32.077653     528652.5   -92024.295    42682.246   -134706.54     12477.16    -147183.7    120.95061   -22.192561   -194.99101   -75.065216   -75.065216    47.535377 
  389000   119000    300.77254    51.863036    528426.08   -91678.659    43038.682   -134717.34    12557.422   -147274.76    -200.6163  -0.34196342    356.54737   -7.1011937   -7.1011937   -120.11061 
  390000   120000    297.41581   -11.758209    528832.76   -91841.541    42558.354   -134399.89    12672.999   -147072.89    209.52335    119.77046   -364.56843   -8.0970722   -8.0970722   -80.760291 
  391000   121000    298.11842   -299.54863    530789.65   -91752.826    42658.893   -134411.72     12665.66   -147077.38   -455.07534   -71.913678   -371.65687    50.835618    50.835618   -121.81185 
  392000   122000    297.59288    78.982838    526534.53   -92310.515    42583.693   -134894.21    12545.686   -147439.89    209.96648     19.50111      7.48092   -73.058309   -73.058309     58.75453 
  393000   123000     297.8208    136.72676    529370.86    -91488.22    42616.306   -134104.53    12650.769   -146755.29    192.51329    276.29031   -58.623326   -107.18567   -107.18567    36.707264 
  394000   124000    297.53758    -36.94363    528500.37   -92019.781    42575.779   -134595.56    12619.983   -147215.54   -203.55749    65.313249    27.413353    215.96737    215.96737    107.97995 
  395000   125000     294.3414    125.26197    526295.02   -92197.995    42118.426   -134316.42    12689.109   -147005.53    169.98403   -26.077264    231.87915   -83.576289   -83.576289   -222.53842 
  396000   126000    298.12171    50.842504    527406.68   -92409.254    42659.364   -135068.62    12438.092   -147506.71    59.022035    49.041716     44.46376    224.51404    224.51404   -183.32256 
  397000   127000    298.40962    15.493695    529591.41   -91626.661    42700.562   -134327.22    12599.685   -146926.91   -88.819818    86.254882     49.04602   -279.96113   -279.96113    121.51893 
  398000   128000    295.65179   -180.66919    528882.78   -92138.496    42305.934   -134444.43      12396.4   -146840.83   -187.15474    -114.0866   -240.76622    30.857536    30.857536    263.68789 
  399000   129000    298.24138    43.901241     528944.2   -91434.167    42676.488   -134110.65    12503.938   -146614.59   -69.026635    136.04409    64.686265   -88.038851   -88.038851    43.251279 
  400000   130000    298.32162    199.73191    527245.61   -91817.271     42687.97   -134505.24    12491.639   -146996.88    80.681826    503.10025    15.413653    13.426257    13.426257    105.45584 
  401000   131000    298.06699    44.510976    527784.97    -91733.78    42651.535   -134385.31    12695.163   -147080.48     -104.225     114.9219    122.83603    46.542884    46.542884   -11.955296 
  402000   132000    298.24624   -23.969165    527935.88   -92018.143    42677.184   -134695.33    12743.725   -147439.05    484.69825   -320.96858   -235.63716   -138.83025   -138.83025    -31.20291 
  403000   133000    300.30793   -236.90671    527429.41   -91686.598    42972.199    -134658.8    12654.996   -147313.79   -254.71222   -219.25858   -236.74935    62.515853    62.515853    63.394756 
  404000   134000    298.06261    246.67407    529785.31   -91630.483    42650.907   -134281.39    12533.286   -146814.68    172.93913    153.38296    413.70013    121.85117    121.85117     -255.203 
  405000   135000     298.0062    168.32011    525979.65   -92225.921    42642.836   -134868.76    12484.705   -147353.46    193.61136     76.38561    234.96337    -96.11259    -96.11259      102.581 
  406000   136000    297.55296   -32.882961    530216.03   -91739.094     42577.98   -134317.07    12381.851   -146698.93    76.439706    70.054774   -245.14336    -148.6937    -148.6937    62.766844 
  407000   137000    297.08772    6.5229665    527538.67   -91969.597    42511.406      -134481    12613.469   -147094.47    91.689692    33.771399   -105.89219     167.2235     167.2235    14.920828 
  408000   138000    297.87474   -53.229522    529767.76   -91571.436    42624.024   -134195.46    12669.833   -146865.29    53.266306   -146.11221   -66.842657   -118.34169   -118.34169    203.69057 
  409000   139000    300.00435   -120.83674    528490.54   -91370.142    42928.758    -134298.9    12385.185   -146684.08   -151.11453    22.680467   -234.07617   -125.45354   -125.45354   -55.568736 
  410000   140000    297.99682   -110.64279    530081.19   -91841.495    42641.493   -134482.99    12519.586   -147002.57    -179.3203   -102.28019   -50.327879    49.867657    49.867657    196.33238 
  411000   141000    298.14748   -146.27826    527530.09   -91618.843    42663.051   -134281.89    12435.757   -146717.65   -397.43324    88.420038   -129.82159    161.72885    161.72885   -138.20782 
  412000   142000    298.19812    264.76011    528326.78   -91924.894    42670.298   -134595.19    12409.054   -147004.25     106.3963    529.97349    157.91053    50.940428    50.940428   -311.69365 
  413000   143000    298.15685    89.356844    528224.32   -91598.917    42664.393   -134263.31    12659.384   -146922.69    12.008765    294.81387   -38.752099    140.56343    140.56343    120.63835 
  414000   144000    298.31107   -50.308432    529482.19   -91983.258     42686.46   -134669.72    12494.567   -147164.28    77.324959   -94.897078   -133.35318   -248.50693   -248.50693    13.430696 
  415000   145000    300.22035   -342.85491    529540.47   -91676.944    42959.667   -134636.61    12639.863   -147276.47   -420.67331   -491.99972   -115.89172   -27.527863   -27.527863    22.687305 
  416000   146000     295.4963     34.32362    529938.54   -92084.129    42283.685   -134367.81    12493.434   -146861.25   -12.429198   -200.14846    315.54852   -113.54935   -113.54935   -50.823926 
  417000   147000      300.446    56.373391    526516.75   -91638.241    42991.956    -134630.2    12484.581   -147114.78    157.12549   -105.56715    117.56183   -144.78261   -144.78261   -30.322057 
  418000   148000    297.84429    86.780496     528314.7   -92166.951    42619.668   -134786.62     12692.14   -147478.76    133.67053   -94.035874    220.70684   -39.441012   -39.441012   -220.51869 
  419000   149000    297.96906    176.36316    526248.09   -91924.887    42637.521   -134562.41    12523.633   -147086.04    86.750774    207.65127    234.68743   -70.036347   -70.036347      58.9935 
  420000   150000     298.1813   -172.71668    522698.28   -92124.645    42667.891   -134792.54    12529.511   -147322.05   -184.10751   -435.74706    101.70453     105.2935     105.2935    90.460295 
  421000   151000    296.98674    31.281711    529204.52   -92184.887    42496.957   -134681.84    12529.935   -147211.78   -138.67748    348.25881    -115.7362   -249.31936   -249.31936    250.02872 
  422000   152000    297.23153    143.53325    526499.16   -92422.161    42531.985   -134954.15    12560.772   -147514.92   -66.105916    267.00198    229.70369    51.121552    51.121552    -26.08651 
  423000   153000    301.03127   -73.608317    525827.51   -91507.764    43075.704   -134583.47    12705.744   -147289.21   -85.404849   -23.490178   -111.92992   -45.399603   -45.399603   -69.556573 
  424000   154000    299.27023    92.054032    529892.55   -91667.137    42823.711   -134490.85     12729.25    -147220.1    171.16762    54.855158    50.139323   -146.34702   -146.34702   -61.043499 
  425000   155000    299.46127   -106.38302     528321.6   -91840.685    42851.047   -134691.73    12693.211   -147384.94    103.94694   -354.49356   -68.602431    8.7247067    8.7247067   -76.211202 
  426000   156000    296.25694    113.60021     528283.2   -91862.422    42392.528   -134254.95    12489.947    -146744.9    155.82174    194.15268   -9.1737957   -20.607375   -20.607375    38.391264 
  427000   157000    299.29021    155.55648    526808.22   -91475.747     42826.57   -134302.32    12524.877   -146827.19    194.03787    196.72131    75.910264    334.34503    334.34503   -59.289511 
  428000   158000    297.40916   -212.71762    528331.11   -92061.204    42557.403   -134618.61    12508.451   -147127.06   -231.75434   -286.26571    -120.1328    54.851981    54.851981    35.155002 
  429000   159000    300.42049    99.623828    526709.92   -91710.153    42988.305   -134698.46    12930.996   -147629.45   -28.997832    216.28598    111.58334    109.17129    109.17129    85.074732 
  430000   160000    298.36568     156.3999    525660.25   -91688.868    42694.275   -134383.14    12569.014   -146952.16   -109.15021    448.14873    130.20118    25.956802    25.956802    116.49787 
  431000   161000    297.72681   -189.39795    531700.39   -92286.445    42602.857    -134889.3     12449.66   -147338.96    116.25735    -307.4021   -377.04911   -400.11647   -400.11647    68.288864 
  432000   162000    296.01352   -51.387531    526000.08    -92582.31    42357.695      -134940    12545.995      -147486   -212.24376   -68.508619    126.58979    61.102932    61.102932    61.988719 
  433000   163000    296.40447    101.83074    526986.74   -92066.028    42413.637   -134479.66    12528.848   -147008.51     158.3815   -150.77534    297.88606    118.04679    118.04679   -200.32953 
  434000   164000    297.01321    141.87166     528514.6    -91958.57    42500.745   -134459.31    12639.385    -147098.7    12.254732    285.76826    127.59198    109.93176    109.93176   -20.919182 
  435000   165000    297.59842   -118.50687    527164.67   -91641.888    42584.484   -134226.37    12739.857   -146966.23   0.65316605   -86.954212   -269.21956    40.022567    40.022567    155.85167 
  436000   166000    297.88888    38.274738    529185.84   -91903.503    42626.047   -134529.55    12533.913   -147063.46    170.00981   -140.93801    85.752407   -280.71468   -280.71468     17.43825 
  437000   167000    299.93544   -208.87283    528843.33   -91484.415    42918.898   -134403.31    12574.425   -146977.74    -285.1032   -308.92765   -32.587653   -112.88609   -112.88609   -75.833432 
  438000   168000    296.35797   -76.882085    526861.77    -92386.22    42406.984    -134793.2    12684.713   -147477.92   -135.74311   -154.86538    59.962235    133.96176    133.96176    -79.27813 
  439000   169000    298.94263    245.70228    528079.09   -91910.917    42776.833   -134687.75    12543.896   -147231.65    208.58553    62.974559    465.54676    76.808228    76.808228   -116.06747 
  440000   170000    298.72913    130.11523    528008.97   -91886.745    42746.283   -134633.03    12564.322   -147197.35    108.18999    -130.9667    413.12241   -22.094421   -22.094421    181.50041 
  441000   171000     295.4053    271.25829     529210.7   -91777.188    42270.663   -134047.85    12602.435   -146650.29    75.606539     394.5505    343.61783    43.014342    43.014342   -147.10149 
  442000   172000    297.76226   -19.089883    529542.35   -92013.979    42607.929   -134621.91    12572.456   -147194.36   -72.507647   -94.059986    109.29798   -113.72208   -113.72208    2.4708707 
  443000   173000    296.63599   -69.011647    530455.39   -91820.815    42446.767   -134267.58    12674.313   -146941.89   -141.92235   -132.34397    67.231387   -183.29893   -183.29893   -235.88371 
  444000   174000    298.64544   -70.294577     527399.6   -92063.572    42734.307   -134797.88    12414.518    -147212.4   -451.54422   -154.87033    395.53082    126.48479    126.48479    152.49854 
  445000   175000    296.76081    -260.9864    527115.03   -92227.587    42464.628   -134692.22    12412.084    -147104.3   -82.727732      -264.97   -435.26148    75.574025    75.574025    42.837343 
  446000   176000    298.24611   -117.57603    529131.62   -92002.584    42677.165   -134679.75    12528.828   -147208.58    43.219385   -268.26324   -127.68422    265.30624    265.30624    236.57327 
  447000   177000    298.16692   -20.970791    528853.38   -92077.746    42665.833   -134743.58    12503.076   -147246.66    125.07624    80.121683    -268.1103    189.35152    189.35152   -128.79542 
  448000   178000    298.40369     26.10745    528437.36   -92157.681    42699.715    -134857.4    12670.443   -147527.84    422.80516    -168.0875   -176.39531     116.3102     116.3102    239.60422 
  449000   179000    298.32452    -125.8452    526064.56   -92065.798    42688.385   -134754.18    12772.952   -147527.13     100.8877   -413.68959   -64.733711   -5.8965086   -5.8965086   -51.558607 
  450000   180000    297.22829    304.96435    528808.32   -91892.508    42531.522   -134424.03    12651.749   -147075.78    325.70331    560.89557    28.294169   -125.65686   -125.65686   -6.4704996 
  451000   181000    299.08643   -205.26377    527902.99   -91911.514    42797.409   -134708.92    12509.851   -147218.77   -40.059223   -88.777522   -486.95455   -91.100648   -91.100648    103.81978 
  452000   182000    300.13245    126.90732       526542   -92127.433    42947.089   -135074.52    12562.542   -147637.06   -97.506065    186.01454    292.21348   -64.103276   -64.103276   -17.488802 
  453000   183000    300.59203   -18.430459    524947.89   -91781.321    43012.851   -134794.17    12559.189   -147353.36   -37.242169    3.7359652   -21.785172     61.05008     61.05008    113.10975 
  454000   184000    297.49742    157.15389     525936.9   -92018.969    42570.032      -134589    12651.623   -147240.62   -223.26874    450.35237    244.37804   -55.647906   -55.647906   -179.09629 
  455000   185000    299.28651    122.14271    527751.73   -91371.387    42826.041   -134197.43    12812.577   -147010.01     255.9649   -50.826634    161.28988   -232.17319   -232.17319   -95.855139 
  456000   186000    298.18299    -124.0221    529054.07   -91995.592    42668.133   -134663.73    12605.612   -147269.34   -212.14388   -89.465341   -70.457089    114.10447    114.10447   -76.439643 
  457000   187000    298.66271    95.717377    527890.89   -91657.244    42736.778   -134394.02    12513.532   -146907.55    -21.23002    85.081335    223.30082    236.74229    236.74229    298.62176 
  458000   188000    297.73797    54.379975     530936.2   -92050.815    42604.453   -134655.27    12552.431    -147207.7   -70.419071    5.1801293    228.37887    66.003462    66.003462    213.14359 
  459000   189000    298.75764    129.66266    528206.32   -91666.282    42750.362   -134416.64    12581.379   -146998.02     228.4032   -145.15409    305.73887   -37.030569   -37.030569    70.561782 
  460000   190000    297.33054   -20.337201    526666.65   -91824.674    42546.153   -134370.83    12534.886   -146905.71    232.64932   -61.713307   -231.94761    2.7844853    2.7844853    30.732057 
  461000   191000    298.27301    21.782657    525751.61   -91956.573    42681.014   -134637.59    12637.461   -147275.05   -201.86081    152.50663    114.70215    81.833376    81.833376   -14.005579 
  462000   192000    299.26162   -199.37009     527594.4    -91898.69    42822.478   -134721.17    12454.283   -147175.45    -69.66509    13.426958   -541.87214     171.8671     171.8671   -49.896318 
  463000   193000    298.95396   -86.732848    527203.21   -91912.785    42778.455   -134691.24    12575.788   -147267.03    22.631969   -488.77097    205.94046   -125.42412   -125.42412    45.889596 
  464000   194000    299.47724   -188.17276    528787.13   -91614.219    42853.332   -134467.55    12690.881   -147158.43   -323.42133   -182.96481   -58.132131   -173.81481   -173.81481    111.56217 
  465000   195000    296.10762     169.7409    529426.87   -92090.139     42371.16    -134461.3    12623.081   -147084.38    190.18827    133.94912     185.0853    53.748529    53.748529   -29.920258 
  466000   196000    297.42415     318.1678       526192   -92194.826    42559.548   -134754.37    12481.269   -147235.64    698.38951    115.57351    140.54039    3.3720735    3.3720735   -132.74467 
  467000   197000    299.68014   -52.564774    526512.48    -91806.88    42882.366   -134689.25    12619.314   -147308.56   -26.340291   -61.924161   -69.429871   -41.068214   -41.068214   -119.43258 
  468000   198000    298.54298   -262.33682    526728.31   -91983.699    42719.646   -134703.35    12635.935   -147339.28   -175.02336   -237.13746   -374.84964   -279.87039   -279.87039   -240.89416 
  469000   199000    299.96494     199.5876    528955.48   -91562.683    42923.119    -134485.8    12672.039   -147157.84    43.570439     334.6219    220.57046    159.27627    159.27627    -110.0004 
  470000   200000    299.08302   -170.62146    527133.16   -91871.033    42796.921   -134667.95    12575.775   -147243.73   -133.08519    87.602286   -466.38147    61.002512    61.002512    30.261616 
Loop time of 71575.9 on 4 procs for 200000 steps with 48006 atoms

Performance: 0.241 ns/day, 99.411 hours/ns, 2.794 timesteps/s
99.3% CPU use with 4 MPI tasks x 1 OpenMP threads

MPI task timing breakdown:
Section |  min time  |  avg time  |  max time  |%varavg| %total
---------------------------------------------------------------
Pair    | 48085      | 48663      | 49595      | 258.2 | 67.99
Bond    | 253.6      | 260.51     | 265.6      |  28.6 |  0.36
Kspace  | 10899      | 11824      | 12396      | 519.4 | 16.52
Neigh   | 5356       | 5356.6     | 5357.5     |   0.9 |  7.48
Comm    | 517.79     | 546.62     | 581.86     | 106.1 |  0.76
Output  | 44.15      | 44.151     | 44.154     |   0.0 |  0.06
Modify  | 4644.3     | 4703.3     | 4753.2     |  60.8 |  6.57
Other   |            | 178        |            |       |  0.25

Nlocal:    12001.5 ave 12132 max 11849 min
Histogram: 1 0 1 0 0 0 0 0 0 2
Nghost:    34311.5 ave 34449 max 34156 min
Histogram: 1 0 0 1 0 0 0 1 0 1
Neighs:    6.27892e+06 ave 6.41896e+06 max 6.12978e+06 min
Histogram: 1 0 0 1 0 0 0 1 0 1

Total # of neighbors = 25115661
Ave neighs/atom = 523.178
Ave special neighs/atom = 1.99975
Neighbor list builds = 13480
Dangerous builds = 0
System init for write_data ...
PPPM initialization ...
WARNING: Using 12-bit tables for long-range coulomb (../kspace.cpp:317)
  G vector (1/distance) = 0.298032
  grid = 64 64 64
  stencil order = 5
  estimated absolute RMS force accuracy = 0.00432201
  estimated relative force accuracy = 1.30156e-05
  using double precision FFTs
  3d grid and FFT values/proc = 107991 65536
Total wall time: 19:52:57
LAMMPS (9 Nov 2016)
OMP_NUM_THREADS environment is not set. Defaulting to 1 thread. (../comm.cpp:90)
  using 1 OpenMP thread(s) per MPI task
Reading restart file ...
  restart file = 9 Nov 2016, LAMMPS = 9 Nov 2016
  orthogonal box = (-26.0129 -29.6454 -39.3948) to (54.7302 51.0977 41.3483)
  2 by 2 by 1 MPI processor grid
  48028 atoms
  32000 bonds
  16000 angles
Finding 1-2 1-3 1-4 neighbors ...
 Special bond factors lj:   0          0          0         
 Special bond factors coul: 0          0          0         
  2 = max # of 1-2 neighbors
  1 = max # of 1-3 neighbors
  1 = max # of 1-4 neighbors
  2 = max # of special neighbors
Resetting global fix info from restart file:
  fix style: npt, fix ID: 2
PPPM initialization ...
WARNING: Using 12-bit tables for long-range coulomb (../kspace.cpp:317)
  G vector (1/distance) = 0.298067
  grid = 64 64 64
  stencil order = 5
  estimated absolute RMS force accuracy = 0.00432072
  estimated relative force accuracy = 1.30117e-05
  using double precision FFTs
  3d grid and FFT values/proc = 107991 65536
All restart file global fix info was re-assigned
Neighbor list info ...
  1 neighbor list requests
  update every 1 steps, delay 10 steps, check yes
  max neighbors/atom: 2000, page size: 100000
  master list distance cutoff = 14
  ghost atom cutoff = 14
  binsize = 7, bins = 12 12 12
Setting up Verlet run ...
  Unit style    : real
  Current step  : 638000
  Time step     : 1
Memory usage per processor = 30.6176 Mbytes
Step Elapsed Temp Press Volume TotEng KinEng PotEng E_mol E_pair Pxx Pyy Pzz Pxy Pxz Pyz 
  638000        0    300.37703    373.23544    526400.51   -93509.178    43001.785   -136510.96    12954.387   -149465.35    512.82201    35.587612    571.29669      153.919     117.9234    162.98186 
  639000     1000    297.51455    376.27358    526116.73   -94249.317    42591.994   -136841.31    12906.647   -149747.96     354.1403    488.68029    286.00013    66.454289   -211.30808    -55.82722 
  640000     2000    296.95112    190.01221    525603.59   -94533.014    42511.334   -137044.35    12874.314   -149918.66    312.69179    383.36599   -126.02116   -36.119338    130.34143    124.06018 
  641000     3000    298.34924    79.903548     526221.1   -94184.002    42711.487   -136895.49    13041.812    -149937.3    99.034664    2.6082839    138.06769   -104.57628    134.48646    110.64753 
  642000     4000    294.00402    138.90129    524312.65   -94687.019    42089.429   -136776.45    13117.942   -149894.39    321.68191    84.081967    10.939998   -138.87155   -173.43043    13.953808 
  643000     5000    297.01624   -121.84358    528168.27   -94264.372    42520.655   -136785.03    13110.188   -149895.22   -128.56466   -69.373247   -167.59282    115.29303   -30.447182   -99.829219 
  644000     6000    297.50242     111.0787    524569.05   -94605.826    42590.257   -137196.08    13149.411   -150345.49     276.7232   -164.87727    221.39018    129.07263    -53.29676   -0.4370742 
  645000     7000    296.89058    270.00559    527655.51   -94407.238    42502.666    -136909.9    12958.063   -149867.97     287.9816    155.96697     366.0682   -218.21811    52.937673   -119.61236 
  646000     8000    298.51687     131.2804    527124.52   -94356.067    42735.486   -137091.55    12907.342   -149998.89    11.539524    229.95385    152.34782    17.255809   -130.14081    40.578128 
  647000     9000      297.068   -388.50429    528227.12   -94393.986    42528.066   -136922.05    12985.886   -149907.94   -564.66272    -349.1981   -251.65205    49.320443    59.539573    119.35931 
  648000    10000    297.70081   -111.68208    524354.36   -94623.772    42618.658   -137242.43     12974.96   -150217.39   -304.28402     88.93032   -119.69253    72.574272   -50.431506     -16.3544 
  649000    11000    297.04451    249.69251    526292.99   -94133.497    42524.704    -136658.2    13053.434   -149711.63    429.16307   -54.736456    374.65092   -282.36313   -153.45154   -229.32169 
  650000    12000    296.57922   -29.289355    526120.95   -94296.486    42458.093   -136754.58      13042.8   -149797.38   -59.046685    38.452378   -67.273759   -94.207641   -38.240168     241.0344 
  651000    13000    298.87717   -154.33518    526934.65   -94362.194    42787.065   -137149.26    13155.694   -150304.95    -296.5409   -287.26187    120.79722    149.18005    4.6319394    390.89698 
  652000    14000    296.79964     267.4305    527624.01    -93877.71    42489.648   -136367.36    12972.552   -149339.91    181.66412     401.4999    219.12749   -57.069306    34.335606   -357.45049 
  653000    15000    297.86705    32.671271    527426.36   -94256.683    42642.458   -136899.14    13058.748   -149957.89   -177.79216    296.24416   -20.438192   -0.8224591    -122.6415    64.540208 
  654000    16000    295.99307    -408.1655    528269.89   -94635.269     42374.18   -137009.45    12957.312   -149966.76   -712.10071    -18.41174   -493.98406    80.906129    90.857793   -208.78213 
  655000    17000    297.79238    302.78521    524260.09   -94420.005    42631.768   -137051.77    12827.511   -149879.28    531.59718    -25.42296     402.1814    230.50247   -52.306672   -126.77223 
  656000    18000    298.19292   -102.59891     525605.3   -94170.571    42689.109   -136859.68    12952.721    -149812.4   -222.41396    68.752576   -154.13535    5.3070188   -22.914681    58.361654 
  657000    19000    296.90986    39.285105    525255.29   -94540.818    42505.427   -137046.24    12997.645   -150043.89     -113.807   -19.894018    251.55633    142.73012   -5.7698337    8.8699395 
  658000    20000    297.40771   -2.3398316    526176.63   -94859.239    42576.698   -137435.94    13118.171   -150554.11    333.84383   -247.07858   -93.784738    -108.9791   -57.671977   -43.416157 
  659000    21000    299.16686    80.663808    524692.96   -94424.329    42828.538   -137252.87    13106.982   -150359.85    60.140045   -88.728648    270.58003    283.20515    89.695103     34.86387 
  660000    22000    297.41338   -100.26978     526984.5   -94444.967     42577.51   -137022.48    13134.458   -150156.93   -221.02442   -62.383691    -17.40123    3.2147585   -69.380099   -151.44456 
  661000    23000     296.2918   -164.37359    525198.53   -94500.259    42416.946    -136917.2    13033.986   -149951.19   -181.53976   -322.66397    11.082959    72.883929    102.45226   -2.6839797 
  662000    24000     296.5026    146.99864    523664.72   -94832.714    42447.123   -137279.84    13072.665    -150352.5    244.24278   -215.29557    412.04872    71.264889   -38.496811   -201.97001 
  663000    25000      298.454    51.523324    525512.78   -94342.694    42726.485   -137069.18    13017.711   -150086.89    11.863437    129.28096     13.42557    166.45745   -27.187776   -5.4169745 
  664000    26000     296.5204   -201.62203    524036.17   -94677.727    42449.672    -137127.4    13093.329   -150220.73   -367.76454   -46.814206   -190.28735    325.69499    277.19371   -45.212259 
  665000    27000    295.38645    27.456918    525991.91   -94642.864    42287.337    -136930.2    13068.392   -149998.59     213.3446   -25.802274   -105.17157   -144.25972    89.921616   -180.99607 
  666000    28000    298.86451   -226.84405    527234.86   -93842.737    42785.254   -136627.99    13164.429   -149792.42   -235.72324   -170.88367   -273.92525   -75.746832      83.0402    52.162195 
  667000    29000    297.38929    97.687701    523758.21   -94314.345    42574.062   -136888.41    12836.661   -149725.07   -52.426915    86.427425    259.06259    137.17487     175.6768    67.362851 
  668000    30000    297.48372    79.077797    526512.26   -94190.263     42587.58   -136777.84    12929.116   -149706.96    81.194125   -17.961714    174.00098   -180.08383    179.43528    230.59877 
  669000    31000    297.92121     -61.9392    527351.77   -94423.581    42650.211   -137073.79    12945.281   -150019.07   -44.709525     -29.8574   -111.25067    113.83171    85.937716    15.101798 
  670000    32000    297.15718    83.864509    527217.69    -94173.97    42540.832    -136714.8    13268.074   -149982.88    47.959727    35.851291    167.78251    48.003259   -94.709936    52.309837 
  671000    33000    297.58153    5.5616315    523973.86   -94509.478    42601.583   -137111.06    13186.577   -150297.64   -375.27318    285.91408    106.04399    141.50882   -66.493135    194.86864 
  672000    34000    298.95825     190.0967    525595.56   -94043.827    42798.673    -136842.5    12934.196    -149776.7    76.882431    296.78158    196.62609   -227.43375   -366.36645    101.17637 
  673000    35000    300.14312   -141.90066    527696.82   -93942.873    42968.299   -136911.17    13062.234   -149973.41    -135.9835   -147.86135   -141.85712   -128.75166   -181.93859    -160.9064 
  674000    36000    297.62905    35.970468    525241.57   -94596.875    42608.385   -137205.26    13027.661   -150232.92    48.702206    280.14011   -220.93091   -106.54018   -76.932941   -95.976186 
  675000    37000    296.35855   -50.085176    528192.64   -94260.988    42426.501   -136687.49    13057.562   -149745.05    51.113496   -149.95817   -51.410857    247.60693    7.5628071    -243.5933 
  676000    38000    299.00773   -165.71329    527809.37   -93984.171    42805.757   -136789.93    13024.918   -149814.85   -253.32308   -254.18853    10.371734    68.446331    113.33382    35.191233 
  677000    39000    297.69708    221.19828    526330.33   -94293.398    42618.125   -136911.52    13221.918   -150133.44    315.61366    180.78782    167.19335   -53.425483    25.120599    7.5599072 
  678000    40000    298.38367    278.47715    522936.78   -94593.235    42716.417   -137309.65    13017.211   -150326.86   -74.121214    517.12881    392.42386    113.67875    30.039888    75.960994 
  679000    41000    299.65523    52.655168    526473.52   -94333.997    42898.453   -137232.45    13124.906   -150357.36   -69.175463    48.605971      178.535    110.91465    135.16168    295.25822 
  680000    42000     298.2606   -54.266254    527802.93   -94132.081    42698.798   -136830.88    13120.072   -149950.95   -338.70281   -71.940487    247.84454   -222.26071     177.7522    97.780263 
  681000    43000    297.62278   -54.608813    526599.21   -94345.332    42607.488   -136952.82    12958.105   -149910.93   -192.42242    85.060575   -56.464589    123.11156    75.482122    96.262224 
  682000    44000    298.07761   -306.19662    528245.37   -94232.849    42672.602   -136905.45    12974.758   -149880.21   -484.73176   -239.39975   -194.45834   -101.60606   -2.0968248    226.85589 
  683000    45000    296.88895   -8.7161065    524454.69   -94312.541    42502.433   -136814.97    13069.916   -149884.89    112.56848    190.20793   -328.92473   -224.10055   -87.547822     253.6281 
  684000    46000    297.81108    78.146334    525520.09   -93952.968    42634.445   -136587.41    13059.865   -149647.28    107.98654   -110.35196    236.80442   -96.318747   -129.52824    19.326187 
  685000    47000    296.87612    42.676777       527639   -94448.487    42500.596   -136949.08    12888.293   -149837.38   -112.22373    2.2497239    238.00434    114.44849   -279.88075   -260.75377 
  686000    48000    297.05483    159.30656    526916.95   -94143.391     42526.18   -136669.57    13027.696   -149697.27    171.09276    207.24683      99.5801   -209.10804   -310.79253    272.55651 
  687000    49000    300.44279    5.5918628    526099.11   -94199.435    43011.199   -137210.63    12845.464    -150056.1    287.10872    -230.3075   -40.025631   -313.98995    36.122574   -303.28764 
  688000    50000     299.2838    159.49002    526303.34    -93765.44    42845.278   -136610.72    13082.511   -149693.23   0.55624182    127.11576    350.79807    151.36141    25.414513    25.032597 
  689000    51000    297.21289   -93.695604    528099.58   -94089.493    42548.808    -136638.3    13102.759   -149741.06   -71.113127   -48.688699   -161.28499   -87.870927   -174.35081    199.44476 
  690000    52000    300.21804    385.62241    525655.98   -93981.966    42979.024   -136960.99    13206.553   -150167.54    722.67943   -10.418397     444.6062   -49.453281    -27.48264   -97.705541 
  691000    53000      298.449    135.94823    526229.57   -94362.217     42725.77   -137087.99    13150.646   -150238.63   -71.130952    145.85227    333.12337    71.470694    174.35485    180.41924 
  692000    54000    297.00123   -325.67697    524836.93   -94622.711    42518.507   -137141.22    13077.265   -150218.48   -549.72874   -147.40648   -279.89569   -126.72916    85.992399   -267.32509 
  693000    55000      298.195    159.26528    528084.97   -93954.329    42689.407   -136643.74    13061.716   -149705.45    311.10581    82.800528    83.889496   -2.4596481   -18.636651   -198.93141 
  694000    56000    297.88183     11.67868    525757.16    -94282.19    42644.573   -136926.76     13123.23   -150049.99   -135.18895    127.42708    42.797912    121.30777    241.57456    65.141385 
  695000    57000    296.68386    211.74074    526746.95   -94222.433    42473.072    -136695.5     13120.41   -149815.91    252.91688    167.61855     214.6868    -262.0003   -10.710576    -10.09782 
  696000    58000    298.23718    207.86297    522737.87   -94654.069    42695.446   -137349.51    13040.513   -150390.03    36.521939    486.71261    100.35435   -112.62937   -252.54939    102.99585 
  697000    59000    297.63455    1.4501656    525451.17   -94512.446    42609.173   -137121.62    13152.998   -150274.62   0.50108559    49.378001    -45.52859   -117.93191   -88.931321    337.27711 
  698000    60000     297.7679   -51.618424    527210.78   -94273.075    42628.264   -136901.34    13093.561    -149994.9    17.606474     -294.488    122.02626    210.05313   -253.19048    163.94982 
  699000    61000    296.95091    112.82484    526424.17   -94627.922    42511.304   -137139.23    13125.908   -150265.13    276.94181   -63.942861    125.47556   -127.07196    -217.8869    37.822693 
  700000    62000    294.60355   -82.944295    526759.67   -94545.905    42175.257   -136721.16    13048.008   -149769.17   -26.937156   -12.803405   -209.09232    129.93004    126.18381    65.622516 
  701000    63000    297.25835   -93.189474    526701.97   -94235.792    42555.316   -136791.11    13043.515   -149834.62    -340.4849    20.806301    40.110181   -5.7804541   -138.65334   -235.49899 
  702000    64000    297.69227    147.59986    525444.35   -94113.358    42617.436   -136730.79    12929.488   -149660.28      253.894     31.71774    157.18784    60.495966    41.538775    82.559474 
  703000    65000    295.91884    188.13047     524352.5   -94638.326    42363.552   -137001.88     13065.27   -150067.15    206.19935    273.73518    84.456863   -98.174525    19.347763     284.6556 
  704000    66000    297.08215    51.962005    528461.27   -94143.038    42530.091   -136673.13    13055.124   -149728.25    40.750444    175.66002   -60.524444   -56.511089   -399.53184   -140.05052 
  705000    67000    295.20309   -1.4739746    526138.95   -94654.333    42261.087   -136915.42    13075.687   -149991.11   -135.63735   -49.238351    180.45377   -151.47902   -30.639133    178.04072 
  706000    68000    295.14092   -12.700461    522546.62   -95179.278    42252.186   -137431.46    12969.191   -150400.66   -48.310565    133.92752   -123.71834   -50.963891    47.877218    246.93356 
  707000    69000    298.81876   -248.47816     524904.1   -94264.915    42778.703   -137043.62     13348.04   -150391.66   -40.450723   -304.15171   -400.83206   -27.870734   -341.76735    17.962392 
  708000    70000    296.50587    119.19898    524565.24   -94542.832    42447.592   -136990.42    13032.868   -150023.29    341.06041    25.393953   -8.8574113    -77.18743   -87.596545    144.82458 
  709000    71000    298.46663   -260.48179    526216.25   -93960.001    42728.293   -136688.29    13123.041   -149811.34     -405.127   -253.87054   -122.44784    47.852792   -74.032795   -72.499915 
  710000    72000    297.10185   -92.631827    525607.05   -94681.479    42532.912   -137214.39    12915.293   -150129.68     73.83423    -225.7086   -126.02111    286.74821    25.844624    21.584585 
  711000    73000    298.30668   -264.00535    524861.13   -94650.716    42705.395   -137356.11    13049.557   -150405.67   -80.907191   -141.64519   -569.46368    24.117962    102.32196     306.0227 
  712000    74000    297.72332     165.5681    526964.71   -94112.292    42621.882   -136734.17    13144.871   -149879.04    377.84064   -165.69829    284.56195   -197.37968    66.676788   -188.40273 
  713000    75000    298.24702    111.30478    525077.48   -94506.707    42696.853   -137203.56    12940.188   -150143.75    161.01504     19.94129    152.95802   -255.83099    347.31163    90.415264 
  714000    76000    299.27845    5.5457754    525418.31   -94429.121    42844.513   -137273.63    12937.075   -150210.71   -21.334316   -141.18725     179.1589   -59.136502   -50.867978    239.40952 
  715000    77000    299.25352   -70.520658     525227.3   -94424.611    42840.943   -137265.55     13000.14   -150265.69   -284.85968   -92.241028    165.53873   -232.99776    144.50814   -192.76077 
  716000    78000    296.68126   -144.37779    524075.82   -94748.265      42472.7   -137220.97     13215.42   -150436.39   -245.35579   -221.41132    33.633736    1.2143488   -36.169869    288.04419 
  717000    79000    296.38564   -272.47358    525988.31   -94524.065     42430.38   -136954.45    13055.777   -150010.22   -253.31528   -317.52601   -246.57946    -5.799877    354.81236    127.63683 
  718000    80000    299.17048    96.344525    524745.65   -94188.221    42829.056   -137017.28     13033.69   -150050.97    59.444017    120.18765     109.4019    95.631877   -25.925959   -41.491474 
  719000    81000     297.1305   -200.16251    525171.73   -94550.042    42537.014   -137087.06    13193.548    -150280.6   -233.04819   -112.64873   -254.79063    244.83078    87.600677    306.09217 
  720000    82000    298.61205    85.249866    527492.97   -94187.575    42749.111   -136936.69    13086.905   -150023.59   -24.660811    142.17699    138.23342    19.364066   -3.3412275   -170.94042 
  721000    83000    298.75879    138.25981    525981.86   -94149.506    42770.118   -136919.62    13018.236   -149937.86    390.47398     117.1707   -92.865249   -4.2586251   -69.102601     66.68463 
  722000    84000    297.30937    62.359869    525123.76   -94713.359    42562.621   -137275.98    13074.016      -150350   -84.062292    235.65676    35.485141    114.46309   -50.991949    17.432829 
  723000    85000    300.27553    186.57554    523738.98   -94190.912    42987.254   -137178.17    13112.591   -150290.76   -123.77636    552.05625    131.44673    113.60013   -93.691538    114.21793 
  724000    86000    297.22509   -139.28597    528398.71   -94091.142    42550.555    -136641.7    12962.908   -149604.61   -363.55644    183.07861   -237.38009    23.889233    167.03435   -305.97618 
  725000    87000    297.42984     67.24461    525644.16   -94161.763    42579.867   -136741.63    13084.832   -149826.46    246.19512   -50.664558    6.2032642   -121.77487    16.059349    75.919094 
  726000    88000    297.88114   -183.41298    528734.27   -94309.312    42644.474   -136953.79    12989.729   -149943.52   -177.89147   -67.811783   -304.53569   -33.093052    -199.3265    128.79582 
  727000    89000    296.20963    9.0958224    526223.17   -94856.772    42405.183   -137261.95    12958.626   -150220.58    292.87824   -170.31635   -95.274422    3.9445708   -87.378194    12.913671 
  728000    90000    298.75783    7.8844868    525807.39   -94290.436    42769.982   -137060.42    12913.269   -149973.69    24.605582   -45.456163    44.504041    137.51681    67.489861   -15.611711 
  729000    91000    297.13361     46.58078    523993.91   -94485.599    42537.459   -137023.06    13123.602   -150146.66    63.789544     135.0041     -59.0513    57.892248    8.4493228    23.362061 
  730000    92000    299.00694    126.61981    525339.42   -94386.086    42805.644   -137191.73     12903.04   -150094.77   -18.820109    152.93697    245.74256    106.75499    35.351204    -118.2142 
  731000    93000    295.41821   -88.558193     523622.1   -94676.916    42291.883    -136968.8    13091.603    -150060.4   -161.40485   -125.71367    21.443942    27.468647   -141.98734    76.609753 
  732000    94000    297.70792   -164.23468    527206.02   -94130.187    42619.677   -136749.86     13083.88   -149833.74   -378.25288    42.297982   -156.74914   -101.95454   -100.18794   -74.647308 
  733000    95000     298.6206   -366.60781    528164.86   -94233.376    42750.336   -136983.71    12990.712   -149974.42   -591.33724    -318.8695   -189.61669    60.246084    199.36868   -38.594911 
  734000    96000    298.50377    30.673487     527113.8    -93749.49     42733.61    -136483.1    12966.556   -149449.66    121.87972    30.795119   -60.654384   -8.9081517   -145.43464   -115.29016 
  735000    97000    298.86755    272.35035    525453.58   -94252.488    42785.689   -137038.18    12945.781   -149983.96    447.69407    378.36715   -9.0101709    51.488582   -36.852511    29.954803 
  736000    98000    298.98466   -129.38902    528716.99   -94216.951    42802.454   -137019.41    13036.241   -150055.65    35.640295   -283.67326   -140.13408   -221.25241    177.76711    67.058721 
  737000    99000    298.53685    30.418908    527067.55    -94256.91    42738.346   -136995.26    13026.301   -150021.56     141.4045   -409.64916    359.50139   -24.630977    23.806399    29.884026 
  738000   100000     298.1424    151.39002    523964.42   -94500.175    42681.877   -137182.05    13017.186   -150199.24    182.36709    114.33206    157.47093    98.624954    97.418723   -130.07262 
  739000   101000    297.69983    190.90928    524900.09   -94201.742    42618.519   -136820.26    12886.711   -149706.97     157.8177    219.53143    195.37871    16.069962    17.146536    17.902665 
  740000   102000    298.53097   -105.07977    527525.11   -93852.521    42737.503   -136590.02    13138.505   -149728.53    150.06224   -318.59531   -146.70625   -7.7401524      48.3339   -19.523615 
  741000   103000    299.80157    177.25226    522673.37   -94579.527    42919.402   -137498.93    13085.431   -150584.36   -6.7608578    418.85007    119.66758   -289.90321   -85.607373    324.39567 
  742000   104000    297.90641     67.85139    526768.44   -94071.469    42648.093   -136719.56    13144.217   -149863.78   -52.723046    410.48834   -154.21112    -90.87684    79.510674   -263.82923 
  743000   105000    297.92239   -115.38099    523991.33   -94532.134     42650.38   -137182.51    13143.629   -150326.14   -13.452717    77.895813   -410.58608   -24.814288   -4.3376767   -315.12818 
  744000   106000     299.1987   -320.00042     524436.5   -94360.351    42833.095   -137193.45    13175.064   -150368.51   -77.889738   -266.71307   -615.39844    250.61115   -60.338004    141.53634 
  745000   107000    297.07293    35.193925    524508.82   -94600.527    42528.771    -137129.3    13047.411   -150176.71   -3.1827905   -19.772371    128.53694    -12.66877    138.49596   -60.918154 
  746000   108000    296.31809    114.43514    525034.48   -94469.749    42420.709   -136890.46    13101.132   -149991.59    597.02575   -641.79651    388.07618   -391.11978     403.0876   -240.38834 
  747000   109000    299.11515   -196.76237    527814.73   -94252.123    42821.135   -137073.26    13094.978   -150168.24   -110.24789   -126.82893   -353.21029    26.871239    -82.04041    65.345309 
  748000   110000    296.88965     190.9853    524419.54   -94720.864    42502.534    -137223.4    13142.662   -150366.06    73.235969    11.091146    488.62878     122.8597    51.367641   -58.098406 
  749000   111000    299.19284    18.228088    527155.42   -94171.434    42832.257   -137003.69    13104.547   -150108.24    225.00848   -38.551489   -131.77273    22.018332    202.23008   -201.30721 
  750000   112000    297.43544    247.44323    527077.58   -94423.133    42580.669    -137003.8    12933.259   -149937.06    122.84922    460.56657     158.9139    103.55736   -178.88862   -5.8329714 
  751000   113000    295.62156   -88.084572    524631.41   -95028.039    42320.995   -137349.03    13117.907   -150466.94   -186.31316   -58.495791   -19.444762    128.36341    -26.46825    258.05088 
  752000   114000    296.78729    36.758134    524790.37   -94617.329    42487.879   -137105.21    13062.494    -150167.7    87.812426   -5.6775582    28.139535   -127.47794    34.914354    106.04825 
  753000   115000    297.82025    189.78977    525602.13   -94131.129    42635.758   -136766.89    13197.229   -149964.12    346.78299    212.28198    10.304324    111.27322   -336.07129    97.749088 
  754000   116000    298.47313    141.40485    524578.07   -94266.954    42729.224   -136996.18    13124.685   -150120.86    119.45682    255.18553    49.572205   -140.19067   -315.70642   -76.971542 
  755000   117000    299.72079   -106.59645    526959.02   -93922.077    42907.838   -136829.92    13183.636   -150013.55   -235.86132    212.65199   -296.58002   -105.43767    50.015227   -152.68832 
  756000   118000    297.62262    289.59826    526047.14   -94721.047    42607.465   -137328.51    12997.975   -150326.49    42.346267      611.833     214.6155   -34.424463   -7.7491699   -93.107031 
  757000   119000    298.26759    170.70447    523986.91   -94435.198    42699.799      -137135     13042.96   -150177.96    243.04976    414.05772   -144.99407    2.7675894   -102.88455   -87.140314 
  758000   120000    296.28518    50.796497    524042.04   -94407.683    42415.998   -136823.68    13236.889   -150060.57    200.06277   -16.568809   -31.104471    5.4334097   -166.02882    50.163923 
  759000   121000    298.18133    171.72967    526062.69   -94382.758     42687.45   -137070.21    13354.858   -150425.07    285.52182    13.335949    216.33125     501.0866    22.775322    122.34069 
  760000   122000    300.37642   -171.62653    523176.77   -94175.336    43001.698   -137177.03    13117.777   -150294.81   -136.24158   -170.39463   -208.24337     -379.189   -114.84458    311.15224 
  761000   123000    297.19397    284.72143    523540.33   -94486.672    42546.099   -137032.77    13102.145   -150134.92    72.803346    765.55113    15.809821    183.79943    147.60986   -75.548925 
  762000   124000    296.90129   -67.848421    524150.44   -94947.781      42504.2   -137451.98    13156.384   -150608.36   -330.01206    13.218473    113.24833   -116.95561    211.81497    114.99587 
  763000   125000    295.63635    -3.086895    526561.68    -94573.47    42323.112   -136896.58    13108.384   -150004.97    28.440703   -348.80658    311.10519    4.3920258    112.40904    -191.8614 
  764000   126000    298.01044    66.563311    525193.03   -94377.584    42662.985   -137040.57    12899.942   -149940.51    425.86731   -541.35976    315.18238    131.27373     -214.659   -163.30427 
  765000   127000    297.99537   -25.332858    526090.07   -94567.475    42660.828    -137228.3    13104.785   -150333.09    269.90818    85.943542   -431.85029   -40.178337   -165.11665    -52.02857 
  766000   128000    299.49395    38.708367    525355.08   -94471.667    42875.364   -137347.03    13159.621   -150506.65    283.18624   -276.53497    109.47383    149.05704   -130.25785   -210.10011 
  767000   129000    299.28323   -26.625339    527030.91   -94214.422    42845.197   -137059.62    13265.734   -150325.35    -147.8658    475.06864   -407.07886    8.1524661   -12.490718   -96.642981 
  768000   130000    297.41941    139.37231    525963.07   -94652.983    42578.374   -137231.36    12902.781   -150134.14   -74.151679    137.22712     355.0415    227.87154   -217.16879    170.15981 
  769000   131000    298.11225    116.11602    525759.87   -94318.015    42677.561   -136995.58    13056.072   -150051.65    107.02977    172.26767    69.050624   -82.750686    492.83342    51.539627 
  770000   132000    298.82988    239.85121    524127.23    -94735.61    42780.296   -137515.91    12902.588    -150418.5    58.962191    406.64418    253.94725    185.29708    86.416839   -75.647754 
  771000   133000    299.65621    47.979353    524060.54   -93924.936    42898.593   -136823.53    13155.606   -149979.14    44.817325   -103.05524    202.17598    74.583704     148.0338   -129.52489 
  772000   134000    299.09204    199.00795    526321.68   -93952.336    42817.826   -136770.16    13061.014   -149831.18    256.41402    540.60393    -199.9941    102.68989    162.74502    85.705794 
  773000   135000    297.70858    62.606331    523561.85   -94664.588    42619.771   -137284.36    13022.224   -150306.58   -190.73355   -159.78449    538.33703   -224.20268   -319.34727    59.737095 
  774000   136000    297.52478   -28.272234    525590.68   -94349.079    42593.458   -136942.54    13071.993   -150014.53    20.528463   -96.781427   -8.5637371   -135.42115    57.869105    56.797539 
  775000   137000    297.35152    351.82968    522222.17   -94980.876    42568.654   -137549.53    13080.466      -150630    618.11881     692.9052   -255.53497    36.785004   -158.77862    188.20429 
  776000   138000    299.10022   -22.084077    524851.32   -94184.763    42818.997   -137003.76    13171.543    -150175.3   -141.04072    211.00647   -136.21798      -97.872   -175.99611    133.98174 
  777000   139000    297.83375   -95.403359    526464.92   -94189.974    42637.691   -136827.66    13412.067   -150239.73   -231.72913   -439.36669    384.88574     109.6396    162.48464    139.15937 
  778000   140000    296.38559   -123.85852     525362.1   -94597.129    42430.373    -137027.5     13000.89   -150028.39    28.478825     11.63506   -411.68945   -168.89905   -11.716699   -109.76687 
  779000   141000    296.97831    10.077904    525690.96   -94561.074    42515.226    -137076.3    13133.714   -150210.01    24.803137   -113.95054    119.38112    95.667686   -244.98458     293.8559 
  780000   142000    299.48522    102.28557    524607.75   -94161.696    42874.113   -137035.81    13070.634   -150106.44    172.90955   -9.5043327    143.45149   -17.211691    89.157571    38.515689 
  781000   143000    297.86022     87.96814    524820.16     -94597.4    42641.479   -137238.88    13192.792   -150431.67    279.05045   -92.121273     76.97524    146.38462    167.53647   -116.01295 
  782000   144000    296.41566    -27.32183    526381.23   -94609.161    42434.678   -137043.84    13305.576   -150349.41    173.86133     5.112055   -260.93887    324.47959    -164.1868     262.8577 
  783000   145000     298.9342    137.94798    523606.57   -94246.104    42795.229   -137041.33    13133.004   -150174.34     176.5831    282.23729   -44.976445    8.8150488    114.56903    39.993829 
  784000   146000    299.04598    -35.49878    527164.49   -94281.682    42811.233   -137092.92    13027.946   -150120.86   -377.10494    155.47166    115.13694    239.51638   -122.84148   -172.96772 
  785000   147000    298.45932    91.898271    523367.01   -94420.721    42727.247   -137147.97    13197.083   -150345.05   -270.03466    71.399543    474.32993   -163.73344    111.37831    166.42643 
  786000   148000      297.418    172.14275    523686.83   -94492.511    42578.172   -137070.68    13186.671   -150257.35      412.174   -92.011107    196.26536    210.06584   -83.390815   -7.6763786 
  787000   149000     297.2757   -289.34072    526101.64   -94577.046      42557.8   -137134.85    13286.313   -150421.16   -131.80097    -621.1433   -115.07789    148.96337    -110.1187    80.062872 
  788000   150000    297.79626    58.084851    523387.66   -94934.937    42632.323   -137567.26    13194.691   -150761.95   -165.37311    124.52845    215.09922    48.510196    199.73746   -170.44189 
  789000   151000    298.37521    195.75747    527783.37   -94165.977    42715.205   -136881.18    13172.311   -150053.49     269.1193   -79.372364    397.52546   -94.852433   -168.42041    109.09236 
  790000   152000    295.84235     92.61003     524403.4    -94587.74    42352.603   -136940.34     13144.13   -150084.47    49.969315    244.13414   -16.273365   -130.90881    26.888581    185.09072 
  791000   153000    298.29872   -174.16198    525135.65   -94303.599    42704.255   -137007.85    13208.405   -150216.26   -337.42358   -150.06133   -35.001041    105.29284    -35.67319   -270.66164 
  792000   154000    298.89535   -151.96648    526367.69    -94420.59    42789.668   -137210.26    13176.093   -150386.35   -304.19374    -139.6295   -12.076208    105.79046    41.261013    125.66877 
  793000   155000    296.72235    127.23973    523721.25   -94790.013    42478.583    -137268.6    13092.761   -150361.36    263.81408    83.201517    34.703605    76.695711    128.57026   -79.389321 
  794000   156000    299.04237    27.519797    526661.66    -94088.85    42810.716   -136899.57    13312.606   -150212.17   -4.9586283    56.265109     31.25291   -72.642742   -56.295353   -58.480638 
  795000   157000    299.40746    29.292176    524083.02   -94283.247    42862.981   -137146.23    13307.765   -150453.99    123.71748   -55.746015    19.905067    106.54474   -307.15142    181.69075 
  796000   158000    296.58517   -427.49847     525024.1   -94828.314    42458.944   -137287.26    13220.902   -150508.16    -334.7022   -328.86331    -618.9299   -103.76699   -138.31352   -12.327259 
  797000   159000     297.8432   -103.63214    524805.96   -94304.186    42639.044   -136943.23     13283.64   -150226.87   -250.62415   -96.589239    36.316955   -86.545968   -124.72344    10.609738 
  798000   160000    299.69105    122.40756    525983.61   -94252.468     42903.58   -137156.05     13150.21   -150306.26    391.35142    237.11592   -261.24466    284.80148   -146.54982   -61.246654 
  799000   161000    296.52432    22.703083    525696.26   -94830.224    42450.234   -137280.46    13204.427   -150484.88    91.938456   -49.536176     25.70697   -93.496751   -52.804313    58.292001 
  800000   162000    296.82587   -308.25984     525826.1    -94560.99    42493.403   -137054.39    13299.794   -150354.19   -543.47945   -315.68731   -65.612762    205.06156    152.92869    65.474833 
  801000   163000    298.12056   -70.134646    525523.24   -93886.542     42678.75   -136565.29    13268.678   -149833.97   -350.35096    110.26005    29.686969     4.152863    24.264613   -151.59823 
  802000   164000    297.78102    71.274713    526362.97   -94417.728    42630.142   -137047.87    13270.527    -150318.4    71.662932   -91.281323    233.44253    62.893909   -32.550744   -208.96328 
  803000   165000     298.4875   -39.289298    523763.99   -94388.945     42731.28   -137120.23    13211.656   -150331.88   -166.40458    43.771193    4.7654987     265.9343    51.468274    11.795845 
  804000   166000    295.73888      -186.63    523337.03   -94738.655     42337.79   -137076.45    13178.369   -150254.81  -0.89085493   -529.49908   -29.500069   -41.857593    157.32011    168.02038 
  805000   167000    300.29619    33.995154    524220.47   -94143.027    42990.211   -137133.24    13253.065    -150386.3    74.644242    -48.44214    75.783361   -82.516053   -42.085236   -78.847844 
  806000   168000    296.34899   -2.7974561    526467.73   -94413.569    42425.133    -136838.7    13426.346   -150265.05    48.386612    122.98556   -179.76454     106.3013    15.426705   -4.4627809 
  807000   169000    296.96144   -87.928079    527419.53   -94261.563     42512.81   -136774.37    13200.198   -149974.57   -122.59469   -99.084415   -42.105134    145.40808    170.90274   -249.29624 
  808000   170000     297.9026    164.64494    522546.87   -94380.625    42647.546   -137028.17    13188.346   -150216.52    271.30128    198.77946    23.854087   -93.268924    27.697577   -124.36262 
  809000   171000    297.43769    127.04282     524015.6   -94863.579    42580.991   -137444.57    13194.462   -150639.03    -67.10366    125.74001     322.4921   -82.348627   -132.53345    16.694181 
  810000   172000    298.27261   -30.603516    522242.27   -94488.155    42700.517   -137188.67      13404.5   -150593.17    -39.34508    -273.4196    220.95413    313.52784    199.83987    96.245467 
[...]
  197000    21000    298.59087    121.05363    533356.01   -119448.49    42977.491   -162425.98    12182.605   -174608.59   -32.910279    74.724591    321.34658   -223.72069   -223.72069      72.7652 
  198000    22000    296.80614    127.34026     534265.8   -119612.18    42720.606   -162332.78     12035.25   -174368.03    3.9637222    272.62498    105.43208   -76.174676   -76.174676    101.64209 
  199000    23000    297.36532   -56.112935    533352.78   -119499.28    42801.091   -162300.37    12098.397   -174398.77    -305.0935   -25.332448    162.08715     120.4547     120.4547   -71.404791 
  200000    24000    299.18675   -59.358134    533671.08   -118751.16    43063.258   -161814.42    12100.417   -173914.83   -170.87439   -127.88189    120.68188    151.65089    151.65089    151.17724 
  201000    25000    298.37038    -2.955559    534544.95   -119261.27    42945.754   -162207.02    12221.135   -174428.16   -117.62459    32.123188    76.634727   -131.81885   -131.81885   -162.55188 
  202000    26000    297.21478    16.105211    530682.93   -119481.39    42779.423   -162260.81     12120.67   -174381.48     -220.892     119.5534    149.65423    46.733095    46.733095   -46.812761 
  203000    27000    297.89475    113.29152     531633.9   -119556.85    42877.295   -162434.14    12184.346   -174618.49   -201.96317     440.4736    101.36413    60.379522    60.379522    152.97239 
  204000    28000    299.13263   -201.27639    534149.33   -119339.45    43055.468   -162394.92    12200.305   -174595.22   -284.17224   -15.329033   -304.32791    -188.0736    -188.0736   -132.23376 
  205000    29000    299.16581    13.631984    532356.98   -119350.17    43060.244   -162410.41    12158.587      -174569    54.383383    67.926766   -81.414196    216.27298    216.27298     133.1996 
  206000    30000    299.50097   -19.524158    531701.17   -119037.34    43108.485   -162145.82    12244.082    -174389.9    249.43507    -337.1287    29.121156    2.2593916    2.2593916    10.306403 
  207000    31000    298.68641    -176.5948    535188.73   -118746.07    42991.242   -161737.31    12261.053   -173998.36    -51.51055   -329.25416   -149.01969    38.046716    38.046716   -158.24291 
  208000    32000    299.70707    33.781636    533011.92   -119160.92     43138.15   -162299.07    12199.486   -174498.56    8.3106583    245.80662   -152.77237    142.01157    142.01157   -11.072626 
  209000    33000    297.52253    28.163398    533881.64   -119038.72     42823.72   -161862.44    12211.798   -174074.24    68.672573    93.212969   -77.395348    117.10805    117.10805   -125.55782 
  210000    34000    298.49783    157.17725    532904.53   -119451.91    42964.099   -162416.01    12370.965   -174786.98    131.00582     212.8319    127.69402     29.23694     29.23694   -148.73385 
  211000    35000    297.54434   -74.396095    531373.01   -119215.37    42826.858   -162042.23    12588.607   -174630.84   -67.102017   -33.627152   -122.45912    106.28939    106.28939    227.47426 
  212000    36000    296.42212    34.014444    534052.24    -119869.6    42665.332   -162534.93    12360.528   -174895.46    82.751281    128.04322   -108.75117       149.64       149.64    239.51333 
  213000    37000    298.91998   -82.115059    533506.43   -119316.77     43024.86   -162341.63    12422.892   -174764.52   -196.29116   -271.68033    221.62631   -16.255246   -16.255246   -79.267115 
  214000    38000    299.18578   -217.30323    533382.11   -119498.42    43063.119   -162561.53    12286.191   -174847.73   -156.81597   -529.04003    33.946304    87.071481    87.071481    194.19641 
  215000    39000    297.89189    31.927866    532406.36   -119160.44    42876.883   -162037.32    12335.952   -174373.28    295.26202   -114.62226   -84.856155    72.977701    72.977701   -22.716787 
  216000    40000    296.64781    246.66782    534091.51   -119589.19    42697.817      -162287    12247.039   -174534.04    134.45239     247.1063    358.44476   -148.91774   -148.91774   -87.329478 
  217000    41000    297.20063   -133.39166    531830.85   -119949.46    42777.386   -162726.85    12258.374   -174985.22   -65.774914   -164.59696   -169.80311     13.10807     13.10807   -156.46094 
  218000    42000    298.13736    -273.4882    532632.05   -119533.77    42912.215   -162445.98    12316.172   -174762.15   -533.97356   -276.67753   -9.8134973    35.296291    35.296291   -36.547694 
  219000    43000    299.29404   -103.18226    531026.47   -119170.04    43078.701   -162248.74    12302.989   -174551.73   -192.58486    82.490692   -199.45259   -176.06741   -176.06741    207.39605 
  220000    44000    298.66987    203.43889    529693.38   -119442.03    42988.861   -162430.89    12373.109      -174804    88.699774    360.06924    161.54765   -227.93127   -227.93127   -93.438411 
  221000    45000    296.82135   -181.70318    533247.73   -119671.78    42722.795   -162394.57    12269.263   -174663.84   -355.62624    178.52184   -368.00514   -102.50878   -102.50878    162.12594 
  222000    46000    297.06054   -154.71207    532068.77   -119872.26    42757.223   -162629.48    12143.741   -174773.22   -489.14086    119.66089    -94.65626    137.95836    137.95836   -187.83976 
  223000    47000    297.35657    107.12071    532780.82    -119378.7    42799.832   -162178.53    12240.245   -174418.77   -155.40783    221.38428    255.38568    5.1740034    5.1740034   -187.57173 
  224000    48000    298.89012   -137.76217     531660.6   -119187.71    43020.563   -162208.27    12456.695   -174664.97   -38.968507   -251.50323   -122.81478   -154.36356   -154.36356    92.563763 
  225000    49000     297.8538    131.34996    531725.19   -119347.19      42871.4   -162218.59    12223.465   -174442.06    200.27548   -265.70077    459.47518    12.433339    12.433339   -1.3702998 
  226000    50000    300.23063    70.779514    533501.78   -119196.24    43213.508   -162409.74    12337.051    -174746.8   -116.19926    139.84649    188.69131   -96.667556   -96.667556    -180.3304 
  227000    51000    297.83527   -162.57719    532070.37    -119230.9    42868.733   -162099.63    12349.465   -174449.09   -141.26969   -254.82766   -91.634211    103.93152    103.93152   -213.11722 
  228000    52000    297.93124    171.51782    531797.94   -119646.97    42882.547   -162529.52    12337.985    -174867.5     527.0575   -24.607658    12.103599    154.49272    154.49272    171.93715 
  229000    53000    297.97591    -149.6014    533505.28   -119263.85    42888.976   -162152.82     12277.08    -174429.9   -74.744111   -1.3810897     -372.679    -183.7772    -183.7772    117.45178 
  230000    54000    298.89636   -163.82015    530583.92   -119260.94    43021.461    -162282.4    12215.688   -174498.09   -277.98212    96.620802   -310.09914   -36.123216   -36.123216   -130.04487 
  231000    55000    297.77066   -146.68848    531461.87   -119517.18    42859.434   -162376.61    12128.908   -174505.52    -46.14242   -189.13698   -204.78605   -36.441651   -36.441651    109.39808 
  232000    56000    295.92528    53.928587    533412.02   -119887.65     42593.82   -162481.47    12318.185   -174799.65    22.981898   -29.685181    168.48904   -85.579264   -85.579264   -64.009494 
  233000    57000    297.02225    33.654543    532763.83   -119105.66    42751.711   -161857.37    12226.915   -174084.28    197.83711   -68.075989   -28.797489   -179.69818   -179.69818   -163.87949 
  234000    58000     298.3786   -126.16851     532948.3    -119715.8    42946.938   -162662.74    12349.024   -175011.76   -383.37393    -37.98997     42.85838    194.59122    194.59122    -18.92398 
  235000    59000    297.23796   -89.104815    536048.26   -119561.44     42782.76    -162344.2    12275.239   -174619.44    14.452598   -133.45074    -148.3163   -80.447768   -80.447768   -118.56243 
  236000    60000    298.33178    44.691482    531373.68   -119240.05    42940.198   -162180.25    12205.811   -174386.06    65.684859     292.7414   -224.35181   -83.817009   -83.817009   -90.555019 
  237000    61000    298.03864    10.742851     530848.6   -119526.96    42898.005   -162424.97    12083.203   -174508.17   -199.71072    224.12289    7.8163788   -47.479402   -47.479402    37.337492 
  238000    62000    300.32469    98.852683     533333.8   -118820.24    43227.047   -162047.28    12303.169   -174350.45   -146.05072    357.89305    84.715723   -142.20275   -142.20275    133.45619 
  239000    63000    298.86291    43.758103    533259.31   -118969.02    43016.646   -161985.67    12354.242   -174339.91    39.976074    228.77475   -137.47652   -310.42159   -310.42159    14.927297 
  240000    64000    297.78685    123.81444    533143.25   -119588.62    42861.764   -162450.38    12152.537   -174602.92   -122.02007    230.54417    262.91922   -18.257292   -18.257292   -87.904029 
  241000    65000    299.48315   -226.01403    531573.27   -119429.09     43105.92   -162535.01    12195.028   -174730.04   -358.55174   -172.66185   -146.82849   -17.465018   -17.465018    68.773096 
  242000    66000    298.93113   -35.763393     534684.5   -118961.71    43026.465   -161988.17    12282.625    -174270.8    51.249311   -247.97611    89.436622   -3.2268201   -3.2268201    26.365569 
  243000    67000    297.83672    -24.71503    531866.09   -119631.62    42868.942   -162500.56    12415.331   -174915.89    160.10082    119.15569    -353.4016   -156.13625   -156.13625    102.36572 
  244000    68000    296.84853    107.17555    531230.47   -119698.08    42726.708   -162424.78    12343.374   -174768.16    191.92403   0.47795024    129.12468   -108.27299   -108.27299    27.723533 
  245000    69000    298.09894    27.484514    530665.62   -119524.68    42906.684   -162431.36     12228.29   -174659.65   -171.87229    313.48904   -59.163213   -129.29404   -129.29404   -145.40294 
  246000    70000    297.20309    113.90814    531329.46   -119580.51    42777.741   -162358.25     12322.25   -174680.51    218.11293   -308.93181    432.54331    45.554096    45.554096    57.068493 
  247000    71000    298.18721   -184.05976     534208.6   -119060.72     42919.39   -161980.11    12217.241   -174197.35   -385.36951   -74.859525   -91.950249   -309.50445   -309.50445   -35.298221 
  248000    72000    298.63871   -15.750636    534724.43   -119322.87    42984.375   -162307.25    12197.706   -174504.95   -35.718858   -155.53962    144.00657   -22.708432   -22.708432    83.329083 
  249000    73000    298.56036   -72.874704    532329.81   -119717.76    42973.098   -162690.86    12240.212   -174931.07   -144.71054     61.29006   -135.20363    77.617576    77.617576    229.31484 
  250000    74000    298.45928    20.503666    533395.61   -119701.09     42958.55   -162659.64    12228.287   -174887.93   -27.442257    197.32177   -108.36852   -115.45743   -115.45743   -77.437899 
  251000    75000    298.68172    38.887301    529973.06   -119595.23    42990.566    -162585.8    12290.912   -174876.71     7.054744   -114.09068    223.69784    13.803598    13.803598    211.08736 
  252000    76000     300.3768    11.551205    531572.24   -119124.56    43234.547   -162359.11    12347.308   -174706.42   -47.966601    174.56462     -91.9444   -65.067806   -65.067806   -111.23383 
  253000    77000    296.96552    -179.7871    532089.12   -119388.93    42743.547   -162132.48    12362.051   -174494.53   -138.98595   -146.69731   -253.67803   -191.67429   -191.67429    -55.77675 
  254000    78000    298.75087    37.546574     533060.5   -118960.69    43000.519   -161961.21    12266.695    -174227.9    104.23121   -1.7964478    10.204956    25.203966    25.203966   -82.006458 
  255000    79000    296.72124   -265.89551    531201.18   -119427.37    42708.387   -162135.76    12254.219   -174389.98   -396.98429   -307.34607   -93.356182    60.120167    60.120167    70.447725 
  256000    80000    297.31074   -35.627031    533555.69   -119285.44    42793.235   -162078.68    12252.321      -174331    218.57914   -301.34448   -24.115755    110.63413    110.63413   -167.99913 
  257000    81000    299.08518    93.954741    532986.29   -119439.43    43048.639   -162488.07    12226.314   -174714.39    84.233978   -66.447874    264.07812    119.96751    119.96751    154.55042 
  258000    82000    300.03076   -233.57709    534227.97   -118558.03    43184.739   -161742.77    12439.739   -174182.51   -439.93748    16.157329   -276.95112   -59.350774   -59.350774    74.452637 
  259000    83000     298.9361   -67.321256    530096.68    -119679.9    43027.181   -162707.09    12180.528   -174887.61   -71.284281   -353.54456    222.86507    33.509109    33.509109   -318.24353 
  260000    84000     297.9785    241.45847    531788.08   -119756.85    42889.349    -162646.2    12144.787   -174790.99    150.10702    238.82238    335.44602      42.3287      42.3287   -142.40885 
  261000    85000    297.58242   -10.929752    533580.29   -119344.55     42832.34   -162176.89    12313.289   -174490.18   -280.12877    161.64741    85.692106    167.21758    167.21758    95.353249 
  262000    86000     298.7934   -200.30371    532156.45   -119613.29    43006.642   -162619.94    12257.024   -174876.96   -432.27523   -135.10097   -33.534916   -109.39435   -109.39435     156.4893 
  263000    87000    299.60356    161.86727    530811.91   -119386.81    43123.251   -162510.06    12303.113   -174813.17    286.61249    111.44194    87.547393    -17.64983    -17.64983    95.393878 
  264000    88000    298.62717    140.31783    532570.37   -118901.93    42982.716   -161884.64    12279.091   -174163.73    89.184871    -149.0346    480.80322   -140.20352   -140.20352    147.11762 
  265000    89000    297.94004   -36.470639    528738.26   -119779.68    42883.814    -162663.5    12435.033   -175098.53   -100.83987   -39.504751    30.932702    -9.007109    -9.007109    173.92226 
  266000    90000    298.92761   -153.89398     533784.4   -119203.71    43025.959   -162229.67    12317.582   -174547.25   -256.19804   -86.857499    -118.6264    148.84294    148.84294    159.89832 
  267000    91000    295.20697   -5.4512589    530211.19   -119480.11    42490.431   -161970.55    12229.528   -174200.07   -348.14868    229.67474    102.12016   -93.595591   -93.595591    23.386954 
  268000    92000    296.54053   -27.879604    530784.49   -119699.92    42682.375   -162382.29    12310.986   -174693.28   -96.135516   -26.982019    39.478723    26.618093    26.618093    -70.20826 
  269000    93000    298.20086   -163.08608    530674.95   -119809.85    42921.355   -162731.21    12310.384   -175041.59   -166.20981      -158.31   -164.73842   -136.03912   -136.03912    147.93241 
  270000    94000    296.67495    126.92835     530940.9   -119407.08    42701.723   -162108.81     12244.21   -174353.02    260.62043    151.75214   -31.587515   -49.867602   -49.867602   -394.11299 
  271000    95000    297.62423   -31.065163    531047.03   -119163.41    42838.357   -162001.77    12424.694   -174426.46   -14.012621   -150.70861     71.52574    258.42516    258.42516     255.1124 
  272000    96000    297.44764    117.06723    529482.66   -119617.17     42812.94   -162430.11    12287.305   -174717.42    57.466504     -145.869    439.60419   -72.745859   -72.745859    140.36946 
  273000    97000    295.30363    148.35232    532210.44   -119811.37    42504.344   -162315.71    12231.954   -174547.67    130.89703   -81.674275    395.83421   -19.504964   -19.504964   -146.69802 
  274000    98000     298.0304     268.2387    533622.23   -119182.53    42896.819   -162079.35    12302.983   -174382.33    500.65312   -290.34583    594.40881   -13.472874   -13.472874   -250.66089 
  275000    99000    295.85438    -31.14822    532795.02   -119627.59    42583.616    -162211.2    12299.184   -174510.39   -42.435691    -266.9465    215.93753     86.95967     86.95967    10.769509 
  276000   100000    300.16136    56.082841     528568.5   -119126.34    43203.538   -162329.88    12342.691   -174672.57    328.88493   -216.43617    55.799761    1.6458816    1.6458816    37.796368 
  277000   101000    298.05911   -54.050173    532869.61   -119209.97    42900.952   -162110.93    12356.617   -174467.54   -137.59505   -104.19912    79.643655    142.67631    142.67631   -156.04205 
  278000   102000    298.89203    55.540804     530349.8   -119409.59    43020.838   -162430.43    12205.959   -174636.39    234.43421    176.53181    -244.3436   -172.41017   -172.41017   -42.243852 
  279000   103000    300.37004   -102.06534    532545.51   -119130.79    43233.574   -162364.36    12220.083   -174584.44   -235.07663   -29.082576   -42.036826    158.88226    158.88226    166.86153 
  280000   104000    298.69186   -231.74394    533197.76   -119433.73    42992.026   -162425.75    12308.712   -174734.47   -218.84919   -134.90191   -341.48071    83.541267    83.541267    111.10588 
  281000   105000    297.27598   -78.970878     533750.4   -119455.52    42788.233   -162243.76    12311.748    -174555.5    -206.8897   -75.313888    45.290957   -188.58067   -188.58067    52.979299 
  282000   106000    298.77527    32.180281    533308.98   -118932.23    43004.032   -161936.26    12341.214   -174277.47    85.124603   -31.242651    42.658889    208.46963    208.46963   -130.97201 
  283000   107000    299.82064   -164.04572    532427.99   -119236.68    43154.496   -162391.17    12252.709   -174643.88   -100.80626   -267.24911   -124.08179    245.43544    245.43544    1.8931422 
  284000   108000    296.48821    162.99083    531874.39   -119566.27    42674.846   -162241.12    12154.758   -174395.88    253.63428     97.17097    138.16725    122.44823    122.44823    16.755592 
  285000   109000    299.61804    141.76831    531733.48    -119152.4    43125.335   -162277.73    12437.643   -174715.37    361.49469    242.91387   -179.10364    49.986064    49.986064    252.39409 
  286000   110000    298.65273    171.98665     531449.9   -119316.87    42986.394   -162303.27     12420.13    -174723.4     76.30066    196.34801    243.31127   -74.698488   -74.698488   -193.19142 
  287000   111000    297.53575    142.26967    533273.81   -119620.41    42825.622   -162446.03    12344.834   -174790.87    192.15172   -167.52227    402.17957    41.554221    41.554221    -42.96164 
  288000   112000    297.54425    112.83854    530499.64   -119508.92    42826.845   -162335.76    12290.451   -174626.21    74.561719   -17.518834    281.47274    18.260699    18.260699   -483.91517 
  289000   113000    298.06396   -77.929548    531368.95   -119294.14     42901.65   -162195.79    12250.988   -174446.78   -78.010488    53.815522   -209.59368   -273.22074   -273.22074    128.02725 
  290000   114000    297.59316     61.16849     533832.9   -119325.94    42833.885   -162159.83    12324.124   -174483.95    1.0582445    166.38023    16.066996    142.73711    142.73711   -11.433145 
  291000   115000    297.77599    158.63574    533123.19   -119640.63    42860.201   -162500.83    12128.688   -174629.52    152.86568   -81.974752    405.01628    297.71717    297.71717   -177.90999 
  292000   116000    297.87343   -99.904552    530490.33   -119784.05    42874.226   -162658.27    12133.142   -174791.42   -382.58196    113.70685   -30.838551    178.03471    178.03471   -269.74754 
  293000   117000    298.39884    210.58962    531815.78   -119599.78    42949.851   -162549.63    12165.682   -174715.31    259.47279    156.16573    216.13033     53.87871     53.87871    44.707631 
  294000   118000    299.64934    74.149954    530763.26   -119044.39    43129.841   -162174.23    12291.601   -174465.83    190.57988   -341.93668    373.80667   -77.208677   -77.208677   -140.04877 
  295000   119000    297.11595    9.1467136    533268.79    -119588.6    42765.199    -162353.8    12278.473   -174632.28     305.3283   -495.26486    217.37671   -173.26146   -173.26146   -200.95501 
